 Gaussian 09, Revision D.01,
 Gaussian 09:  ES64L-G09RevD.01 24-Apr-2013

 -----------------------------------
 # opt b3lyp/3-21g geom=connectivity
 -----------------------------------

 -------------------
 Title Card Required
 -------------------
 Symbolic Z-matrix:
 Charge =  0 Multiplicity = 1

 SCF Done:  E(RB3LYP) =  -1372.06414062     A.U. after   17 cycles
 SCF Done:  E(RB3LYP) =  -1372.06981462     A.U. after   14 cycles
 SCF Done:  E(RB3LYP) =  -1372.07076467     A.U. after   13 cycles
 SCF Done:  E(RB3LYP) =  -1372.07192623     A.U. after   13 cycles
 SCF Done:  E(RB3LYP) =  -1372.07208898     A.U. after   13 cycles
 SCF Done:  E(RB3LYP) =  -1372.07233569     A.U. after   13 cycles
 SCF Done:  E(RB3LYP) =  -1372.07242386     A.U. after   12 cycles
 SCF Done:  E(RB3LYP) =  -1372.07259367     A.U. after   12 cycles
 SCF Done:  E(RB3LYP) =  -1372.07269980     A.U. after   14 cycles
 SCF Done:  E(RB3LYP) =  -1372.07275489     A.U. after   13 cycles
 SCF Done:  E(RB3LYP) =  -1372.07310891     A.U. after    7 cycles
 SCF Done:  E(RB3LYP) =  -1372.07310900     A.U. after    8 cycles
 SCF Done:  E(RB3LYP) =  -1372.07310910     A.U. after    7 cycles
 SCF Done:  E(RB3LYP) =  -1372.07310931     A.U. after    8 cycles
 SCF Done:  E(RB3LYP) =  -1372.07310982     A.U. after   10 cycles
 SCF Done:  E(RB3LYP) =  -1372.07311128     A.U. after   11 cycles
 SCF Done:  E(RB3LYP) =  -1372.07311013     A.U. after   11 cycles
 SCF Done:  E(RB3LYP) =  -1372.07311039     A.U. after    8 cycles
 SCF Done:  E(RB3LYP) =  -1372.07311087     A.U. after    8 cycles
 SCF Done:  E(RB3LYP) =  -1372.07311118     A.U. after    8 cycles
 Optimization completed on the basis of negligible forces.
    -- Stationary point found.

                         Standard orientation:
 ---------------------------------------------------------------------
 Center     Atomic      Atomic             Coordinates (Angstroms)
 Number     Number       Type             X           Y           Z
 ---------------------------------------------------------------------
      1          9           0       -1.614661   -2.666155    0.358569
      2          8           0       -0.249427    1.930805    0.862408
      3          8           0        3.288438   -2.874240   -0.252293
      4          8           0        5.898457   -2.105811   -0.399136
      5          8           0        6.362527    0.127763   -0.347586
      6          7           0       -2.273635    0.042072    0.870375
      7          7           0       -5.361237    1.133950   -0.872193
      8          7           0        2.432759    1.170111    0.092861
      9          6           0       -4.558681   -0.624569    0.727498
     10          6           0       -4.453250    0.852285    0.248148
     11          6           0       -3.294251   -0.776178    1.595162
     12          6           0       -2.923503    1.053788   -0.011811
     13          6           0       -4.532295   -1.616204   -0.458875
     14          6           0        2.190694    2.614745   -0.009240
     15          6           0       -5.531736   -1.208593   -1.561707
     16          6           0        2.944908    3.393941   -1.081156
     17          6           0        1.446267    3.139284   -1.212018
     18          6           0       -5.236605    0.225549   -2.033543
     19          6           0       -0.968052   -0.368901    0.619868
     20          6           0        1.387860    0.229893    0.242728
     21          6           0        0.061170    0.592358    0.563920
     22          6           0        1.700594   -1.136935    0.093190
     23          6           0       -0.612293   -1.713348    0.384239
     24          6           0        3.707433    0.720023   -0.059159
     25          6           0        0.684481   -2.093306    0.170168
     26          6           0        4.082804   -0.591134   -0.151918
     27          6           0        3.083835   -1.651099   -0.125245
     28          6           0        5.530557   -0.787668   -0.304714
     29          6           0       -0.536165    2.148497    2.306775
     30          1           0       -5.475530   -0.759924    1.308974
     31          1           0       -4.748692    1.499404    1.082921
     32          1           0       -3.459151   -0.360802    2.598939
     33          1           0       -2.967805   -1.809598    1.678149
     34          1           0       -2.682125    0.841801   -1.060120
     35          1           0       -2.589006    2.066642    0.222887
     36          1           0       -4.769890   -2.620369   -0.085883
     37          1           0       -3.515182   -1.664039   -0.863393
     38          1           0        2.013917    3.106569    0.936591
     39          1           0       -5.465789   -1.901926   -2.408352
     40          1           0       -6.552903   -1.233561   -1.164400
     41          1           0       -5.356948    2.121715   -1.137849
     42          1           0        3.595201    2.845846   -1.751222
     43          1           0        3.284440    4.387585   -0.815964
     44          1           0        0.750653    3.949658   -1.039716
     45          1           0        1.137634    2.407529   -1.947974
     46          1           0       -4.238860    0.243644   -2.510107
     47          1           0       -5.972054    0.538348   -2.782356
     48          1           0        4.481527    1.473326   -0.121869
     49          1           0        0.958646   -3.128454    0.017517
     50          1           0        0.330999    1.870860    2.915149
     51          1           0       -1.409360    1.566110    2.605522
     52          1           0       -0.736032    3.216994    2.397205
     53          1           0        6.890456   -2.127590   -0.500073
 ---------------------------------------------------------------------

 The electronic state is 1-A.
 Alpha  occ. eigenvalues --  -24.57943 -19.07417 -19.06452 -19.01117 -18.99479
 Alpha  occ. eigenvalues --  -14.33883 -14.27237 -14.23547 -10.24732 -10.21487
 Alpha  occ. eigenvalues --  -10.19954 -10.19650 -10.19592 -10.19137 -10.18940
 Alpha  occ. eigenvalues --  -10.18666 -10.18384 -10.15910 -10.15463 -10.15115
 Alpha  occ. eigenvalues --  -10.14739 -10.14590 -10.14385 -10.14172 -10.13537
 Alpha  occ. eigenvalues --  -10.13462 -10.12933 -10.11498 -10.11432  -1.21054
 Alpha  occ. eigenvalues --   -1.08714  -1.05659  -1.01436  -1.00486  -0.99761
 Alpha  occ. eigenvalues --   -0.95271  -0.90713  -0.88615  -0.86517  -0.80917
 Alpha  occ. eigenvalues --   -0.80504  -0.78017  -0.76684  -0.74958  -0.72538
 Alpha  occ. eigenvalues --   -0.70644  -0.68572  -0.67024  -0.65267  -0.64165
 Alpha  occ. eigenvalues --   -0.62047  -0.61325  -0.61002  -0.59772  -0.59296
 Alpha  occ. eigenvalues --   -0.55700  -0.55606  -0.54435  -0.53930  -0.52284
 Alpha  occ. eigenvalues --   -0.51424  -0.50933  -0.50202  -0.49062  -0.47976
 Alpha  occ. eigenvalues --   -0.47716  -0.47187  -0.46157  -0.45697  -0.45263
 Alpha  occ. eigenvalues --   -0.45000  -0.44360  -0.44301  -0.43370  -0.42800
 Alpha  occ. eigenvalues --   -0.42415  -0.42206  -0.41818  -0.41214  -0.40617
 Alpha  occ. eigenvalues --   -0.39815  -0.39770  -0.38829  -0.38474  -0.37904
 Alpha  occ. eigenvalues --   -0.37314  -0.36925  -0.36747  -0.36075  -0.35609
 Alpha  occ. eigenvalues --   -0.35094  -0.33908  -0.32673  -0.32440  -0.31723
 Alpha  occ. eigenvalues --   -0.31528  -0.30844  -0.28804  -0.28588  -0.27349
 Alpha  occ. eigenvalues --   -0.25621  -0.25501  -0.22159  -0.21420  -0.20926
 Alpha  occ. eigenvalues --   -0.19973
 Alpha virt. eigenvalues --   -0.04064  -0.03146   0.01010   0.04220   0.07090
 Alpha virt. eigenvalues --    0.08948   0.09726   0.10138   0.10794   0.10949
 Alpha virt. eigenvalues --    0.11592   0.11849   0.12620   0.12904   0.13825

 Mulliken charges:
               1
     1  F   -0.282903
     2  O   -0.529543
     3  O   -0.497780
     4  O   -0.540940
     5  O   -0.519243
     6  N   -0.669539
     7  N   -0.576974
     8  N   -0.843847
     9  C   -0.235064
    10  C   -0.045291
    11  C   -0.188353
    12  C   -0.191904
    13  C   -0.358366
    14  C   -0.035041
    15  C   -0.367288
    16  C   -0.408857
    17  C   -0.361943
    18  C   -0.215602
    19  C    0.283622
    20  C    0.360688
    21  C    0.278764
    22  C   -0.077970
    23  C    0.278031
    24  C    0.213616
    25  C   -0.196918
    26  C   -0.206723
    27  C    0.408534
    28  C    0.662106
    29  C   -0.360350
    30  H    0.197782
    31  H    0.203826
    32  H    0.190013
    33  H    0.221158
    34  H    0.201652
    35  H    0.203983
    36  H    0.193195
    37  H    0.196789
    38  H    0.226821
    39  H    0.184456
    40  H    0.197490
    41  H    0.270318
    42  H    0.226891
    43  H    0.217064
    44  H    0.214545
    45  H    0.224814
    46  H    0.163167
    47  H    0.197337
    48  H    0.264603
    49  H    0.240316
    50  H    0.198989
    51  H    0.224379
    52  H    0.206837
    53  H    0.358653
 Sum of Mulliken charges =   0.00000

 Dipole moment (field-independent basis, Debye):
    X=             -4.0139    Y=              5.7658    Z=              1.0943  Tot=              7.1101
 Quadrupole moment (field-independent basis, Debye-Ang):
   XX=           -180.1921   YY=           -166.9035   ZZ=           -160.7563
   XY=              5.9062   XZ=              0.3141   YZ=              1.3830

 Normal termination of Gaussian 09 at Mon Jul  6 12:34:16 2020.
