 Gaussian 09, Revision D.01,
 Gaussian 09:  ES64L-G09RevD.01 24-Apr-2013

 -----------------------------------
 # opt b3lyp/3-21g geom=connectivity
 -----------------------------------

 -------------------
 Title Card Required
 -------------------
 Symbolic Z-matrix:
 Charge =  0 Multiplicity = 1

 SCF Done:  E(RB3LYP) =  -1364.82116325     A.U. after   17 cycles
 SCF Done:  E(RB3LYP) =  -1364.82700895     A.U. after   14 cycles
 SCF Done:  E(RB3LYP) =  -1364.82779012     A.U. after   14 cycles
 SCF Done:  E(RB3LYP) =  -1364.82845934     A.U. after   13 cycles
 SCF Done:  E(RB3LYP) =  -1364.82836629     A.U. after   12 cycles
 SCF Done:  E(RB3LYP) =  -1364.82864048     A.U. after   12 cycles
 SCF Done:  E(RB3LYP) =  -1364.82873088     A.U. after   12 cycles
 SCF Done:  E(RB3LYP) =  -1364.82872299     A.U. after   13 cycles
 SCF Done:  E(RB3LYP) =  -1364.82883020     A.U. after   13 cycles
 SCF Done:  E(RB3LYP) =  -1364.82884808     A.U. after   10 cycles
 SCF Done:  E(RB3LYP) =  -1364.82885643     A.U. after   10 cycles
 SCF Done:  E(RB3LYP) =  -1364.82886101     A.U. after   10 cycles
 SCF Done:  E(RB3LYP) =  -1364.82886335     A.U. after   10 cycles
 SCF Done:  E(RB3LYP) =  -1364.82886426     A.U. after    9 cycles
 SCF Done:  E(RB3LYP) =  -1364.82886487     A.U. after    9 cycles
 SCF Done:  E(RB3LYP) =  -1364.82886526     A.U. after    8 cycles
 SCF Done:  E(RB3LYP) =  -1364.82886552     A.U. after    8 cycles
 SCF Done:  E(RB3LYP) =  -1364.82886559     A.U. after    7 cycles
 Optimization completed.
    -- Stationary point found.

                         Standard orientation:
 ---------------------------------------------------------------------
 Center     Atomic      Atomic             Coordinates (Angstroms)
 Number     Number       Type             X           Y           Z
 ---------------------------------------------------------------------
      1          9           0       -1.152476   -2.953946   -0.046945
      2          8           0        3.895574   -2.744043    0.018073
      3          8           0       -5.625653   -1.889900    0.355135
      4          8           0        6.383152   -1.625844   -0.065211
      5          8           0        6.544007    0.649387   -0.131016
      6          7           0        2.488892    1.161117   -0.088795
      7          7           0       -1.946066   -0.231116   -0.164301
      8          7           0        0.276508    0.396205   -0.112244
      9          7           0       -5.518620   -0.463895   -0.049847
     10          7           0       -4.238403    3.686717   -0.492215
     11          6           0        1.983325    2.529222   -0.126756
     12          6           0        2.744922    3.613444    0.620080
     13          6           0        1.395177    3.123840    1.136397
     14          6           0        1.581323    0.089832   -0.077350
     15          6           0       -3.804525    1.178838   -0.667386
     16          6           0       -2.339922    1.198840   -0.167728
     17          6           0       -3.114443   -1.137671   -0.059992
     18          6           0        3.822576    0.891115   -0.105694
     19          6           0       -4.282016   -0.197168   -0.241129
     20          6           0       -0.637892   -0.595450   -0.109008
     21          6           0        2.079868   -1.217042   -0.040031
     22          6           0       -4.667428    2.333936   -0.101909
     23          6           0        4.369424   -0.362460   -0.073047
     24          6           0        3.519925   -1.555983   -0.024292
     25          6           0       -0.204848   -1.951855   -0.059383
     26          6           0        1.126973   -2.249333   -0.026161
     27          6           0        5.839544   -0.367363   -0.092937
     28          6           0       -7.034478   -2.141386    0.670013
     29          1           0        1.512107    2.790599   -1.066085
     30          1           0        2.800074    4.586277    0.147776
     31          1           0        3.620337    3.327140    1.189126
     32          1           0        1.406092    2.494537    2.016736
     33          1           0        0.529700    3.765144    1.028391
     34          1           0       -3.809567    1.224628   -1.766136
     35          1           0       -1.663438    1.763148   -0.808145
     36          1           0       -2.287331    1.612290    0.850391
     37          1           0       -3.178805   -1.642002    0.909991
     38          1           0       -3.103075   -1.909187   -0.833448
     39          1           0        4.493732    1.738500   -0.147552
     40          1           0       -4.655583    2.269423    0.991839
     41          1           0       -5.702162    2.182897   -0.421993
     42          1           0        1.482104   -3.271133    0.006961
     43          1           0       -4.293669    3.852337   -1.499418
     44          1           0       -3.316327    3.940095   -0.132245
     45          1           0        7.374716   -1.519768   -0.082412
     46          1           0       -7.673273   -1.947055   -0.196398
     47          1           0       -7.369754   -1.531822    1.514710
     48          1           0       -7.071454   -3.200667    0.934274
 ---------------------------------------------------------------------

 The electronic state is 1-A.
 Alpha  occ. eigenvalues --  -24.58263 -19.07821 -19.06705 -19.01379 -18.99532
 Alpha  occ. eigenvalues --  -14.33974 -14.30585 -14.30269 -14.26458 -14.23257
 Alpha  occ. eigenvalues --  -10.25002 -10.23158 -10.22443 -10.22350 -10.19821
 Alpha  occ. eigenvalues --  -10.19587 -10.19546 -10.18285 -10.17963 -10.17640
 Alpha  occ. eigenvalues --  -10.17300 -10.15809 -10.15387 -10.15322 -10.15210
 Alpha  occ. eigenvalues --  -10.14871 -10.14406 -10.13965  -1.21635  -1.08973
 Alpha  occ. eigenvalues --   -1.06120  -1.02945  -1.01174  -1.00172  -0.99710
 Alpha  occ. eigenvalues --   -0.94771  -0.90000  -0.88617  -0.88370  -0.83304
 Alpha  occ. eigenvalues --   -0.81263  -0.80084  -0.77405  -0.74460  -0.70560
 Alpha  occ. eigenvalues --   -0.69263  -0.67953  -0.66644  -0.65028  -0.62867
 Alpha  occ. eigenvalues --   -0.61680  -0.61059  -0.60925  -0.57350  -0.56801
 Alpha  occ. eigenvalues --   -0.55049  -0.54273  -0.53327  -0.52278  -0.51785
 Alpha  occ. eigenvalues --   -0.51058  -0.50152  -0.48614  -0.48387  -0.47284
 Alpha  occ. eigenvalues --   -0.46721  -0.46377  -0.45479  -0.45084  -0.44937
 Alpha  occ. eigenvalues --   -0.44684  -0.43624  -0.43362  -0.42942  -0.42609
 Alpha  occ. eigenvalues --   -0.42428  -0.41819  -0.41525  -0.40093  -0.39396
 Alpha  occ. eigenvalues --   -0.38874  -0.38169  -0.38116  -0.37556  -0.37329
 Alpha  occ. eigenvalues --   -0.36748  -0.36263  -0.35976  -0.34571  -0.33037
 Alpha  occ. eigenvalues --   -0.32384  -0.31024  -0.28958  -0.28256  -0.27940
 Alpha  occ. eigenvalues --   -0.27547  -0.25876  -0.24938  -0.23088  -0.22200
 Alpha  occ. eigenvalues --   -0.21943  -0.20826
 Alpha virt. eigenvalues --   -0.04717  -0.03268  -0.00869   0.00317   0.04238
 Alpha virt. eigenvalues --    0.05526   0.08198   0.09593   0.09903   0.10194
 Alpha virt. eigenvalues --    0.11155   0.11356   0.12235   0.12317   0.12887

 Mulliken charges:
               1
     1  F   -0.287325
     2  O   -0.499232
     3  O   -0.383477
     4  O   -0.540183
     5  O   -0.518276
     6  N   -0.805492
     7  N   -0.718015
     8  N   -0.709783
     9  N   -0.316617
    10  N   -0.659268
    11  C   -0.027162
    12  C   -0.408928
    13  C   -0.361774
    14  C    0.657479
    15  C   -0.321789
    16  C   -0.149319
    17  C   -0.192174
    18  C    0.212243
    19  C    0.339806
    20  C    0.645630
    21  C   -0.101029
    22  C   -0.201071
    23  C   -0.204243
    24  C    0.386573
    25  C    0.240230
    26  C   -0.148839
    27  C    0.663522
    28  C   -0.299873
    29  H    0.230235
    30  H    0.220274
    31  H    0.228017
    32  H    0.227696
    33  H    0.207331
    34  H    0.224388
    35  H    0.227148
    36  H    0.205793
    37  H    0.246125
    38  H    0.253315
    39  H    0.264444
    40  H    0.206477
    41  H    0.226435
    42  H    0.248200
    43  H    0.265849
    44  H    0.264725
    45  H    0.359587
    46  H    0.199708
    47  H    0.196731
    48  H    0.205908
 Sum of Mulliken charges =   0.00000

 Dipole moment (field-independent basis, Debye):
    X=             -4.3267    Y=              4.0116    Z=             -0.3845  Tot=              5.9128
 Quadrupole moment (field-independent basis, Debye-Ang):
   XX=           -169.2991   YY=           -163.4800   ZZ=           -156.8911
   XY=             18.3375   XZ=              1.9160   YZ=             -4.1713

 Normal termination of Gaussian 09 at Mon Jul  6 12:18:33 2020.
