 Gaussian 09, Revision D.01,
 Gaussian 09:  ES64L-G09RevD.01 24-Apr-2013

 -----------------------------------------------------
 #opt M06/lanl2dz integral=ultrafine geom=connectivity
 -----------------------------------------------------

 -------------------
 Title Card Required
 -------------------
 Symbolic Z-matrix:
 Charge =  0 Multiplicity = 1

 SCF Done:  E(RM06) =  -848.635230669     A.U. after   17 cycles
 SCF Done:  E(RM06) =  -848.637945363     A.U. after   15 cycles
 SCF Done:  E(RM06) =  -848.638329372     A.U. after   14 cycles
 SCF Done:  E(RM06) =  -848.638532828     A.U. after   13 cycles
 SCF Done:  E(RM06) =  -848.638548684     A.U. after   12 cycles
 SCF Done:  E(RM06) =  -848.638475663     A.U. after   14 cycles
 SCF Done:  E(RM06) =  -848.638564385     A.U. after   14 cycles
 SCF Done:  E(RM06) =  -848.638566270     A.U. after   10 cycles
 SCF Done:  E(RM06) =  -848.638567721     A.U. after   10 cycles
 SCF Done:  E(RM06) =  -848.638568100     A.U. after    9 cycles
 SCF Done:  E(RM06) =  -848.638568157     A.U. after    9 cycles
 Optimization completed.
    -- Stationary point found.

                         Standard orientation:
 ---------------------------------------------------------------------
 Center     Atomic      Atomic             Coordinates (Angstroms)
 Number     Number       Type             X           Y           Z
 ---------------------------------------------------------------------
      1          8           0       -4.581954    0.899545   -0.040892
      2          8           0        1.959818    0.521289    0.016694
      3          8           0       -2.576204    2.045901   -0.078138
      4          8           0        5.412639   -0.228023    0.002455
      5          8           0        4.353721    1.757874    0.045544
      6          7           0       -2.693382   -0.309397    0.007692
      7          7           0       -1.392405   -0.717933   -0.006873
      8          7           0        4.363739    0.493736    0.017842
      9          6           0       -3.734702   -1.335975   -0.069990
     10          6           0       -5.002375   -0.493548    0.168426
     11          6           0       -3.205501    0.995053   -0.037971
     12          6           0        0.925858   -0.402517   -0.002903
     13          6           0       -0.410047    0.142617    0.007805
     14          6           0        1.446851   -1.688595   -0.029367
     15          6           0        3.122167   -0.209717    0.002096
     16          6           0        2.864260   -1.563098   -0.026217
     17          1           0       -3.719983   -1.816669   -1.053476
     18          1           0       -3.579501   -2.096796    0.697548
     19          1           0       -5.375193   -0.576672    1.191968
     20          1           0       -5.804787   -0.703984   -0.537433
     21          1           0       -0.519643    1.226976    0.025054
     22          1           0        0.861258   -2.593313   -0.048664
     23          1           0        3.608966   -2.342383   -0.042202
 ---------------------------------------------------------------------

 The electronic state is 1-A.
 Alpha  occ. eigenvalues --  -19.34040 -19.29719 -19.27420 -19.27079 -19.24701
 Alpha  occ. eigenvalues --  -14.65159 -14.51178 -14.49424 -10.45278 -10.39011
 Alpha  occ. eigenvalues --  -10.37043 -10.35617 -10.33920 -10.33529 -10.31561
 Alpha  occ. eigenvalues --  -10.30278  -1.25612  -1.19793  -1.18042  -1.09696
 Alpha  occ. eigenvalues --   -1.08338  -1.07603  -0.92826  -0.87939  -0.86113
 Alpha  occ. eigenvalues --   -0.81899  -0.77626  -0.71203  -0.70479  -0.67305
 Alpha  occ. eigenvalues --   -0.61032  -0.60653  -0.58226  -0.57387  -0.56976
 Alpha  occ. eigenvalues --   -0.56352  -0.54876  -0.52664  -0.52033  -0.50761
 Alpha  occ. eigenvalues --   -0.48836  -0.48154  -0.47485  -0.47026  -0.46681
 Alpha  occ. eigenvalues --   -0.45829  -0.43172  -0.41551  -0.40836  -0.35560
 Alpha  occ. eigenvalues --   -0.34582  -0.34013  -0.32920  -0.32722  -0.32379
 Alpha  occ. eigenvalues --   -0.30949  -0.30540  -0.26519
 Alpha virt. eigenvalues --   -0.12048  -0.06975   0.00631   0.02321   0.03920
 Alpha virt. eigenvalues --    0.06110   0.08276   0.10064   0.10780   0.12236
 Alpha virt. eigenvalues --    0.13440   0.13632   0.14668   0.14964   0.15326

 Mulliken charges:
               1
     1  O   -0.293492
     2  O   -0.275738
     3  O   -0.301312
     4  O   -0.257334
     5  O   -0.227599
     6  N   -0.311302
     7  N    0.003222
     8  N    0.111076
     9  C   -0.316871
    10  C   -0.266297
    11  C    0.453685
    12  C    0.415005
    13  C   -0.318169
    14  C   -0.304068
    15  C    0.306904
    16  C   -0.271325
    17  H    0.254311
    18  H    0.256776
    19  H    0.246215
    20  H    0.242857
    21  H    0.308028
    22  H    0.268196
    23  H    0.277233
 Sum of Mulliken charges =   0.00000

 Dipole moment (field-independent basis, Debye):
    X=             -7.2104    Y=             -7.8022    Z=              0.2470  Tot=             10.6266
 Quadrupole moment (field-independent basis, Debye-Ang):
   XX=           -102.3404   YY=            -95.9774   ZZ=            -87.8335
   XY=              7.3869   XZ=             -1.7245   YZ=              0.3953

 Normal termination of Gaussian 09 at Tue Jul 21 03:51:30 2020.
