 Gaussian 09, Revision D.01,
 Gaussian 09:  ES64L-G09RevD.01 24-Apr-2013

 -----------------------------------------------------
 #opt M06/lanl2dz integral=ultrafine geom=connectivity
 -----------------------------------------------------

 -------------------
 Title Card Required
 -------------------
 Symbolic Z-matrix:
 Charge =  0 Multiplicity = 1

 SCF Done:  E(RM06) =  -1247.94732741     A.U. after   17 cycles
 SCF Done:  E(RM06) =  -1247.95135960     A.U. after   15 cycles
 SCF Done:  E(RM06) =  -1247.95239521     A.U. after   15 cycles
 SCF Done:  E(RM06) =  -1247.95379207     A.U. after   15 cycles
 SCF Done:  E(RM06) =  -1247.95453755     A.U. after   15 cycles
 SCF Done:  E(RM06) =  -1247.95501975     A.U. after   15 cycles
 SCF Done:  E(RM06) =  -1247.95519174     A.U. after   15 cycles
 SCF Done:  E(RM06) =  -1247.95529248     A.U. after   13 cycles
 SCF Done:  E(RM06) =  -1247.95531543     A.U. after   13 cycles
 SCF Done:  E(RM06) =  -1247.95534394     A.U. after   12 cycles
 SCF Done:  E(RM06) =  -1247.95534727     A.U. after   12 cycles
 SCF Done:  E(RM06) =  -1247.95535207     A.U. after   12 cycles
 SCF Done:  E(RM06) =  -1247.95535497     A.U. after   11 cycles
 SCF Done:  E(RM06) =  -1247.95535724     A.U. after   12 cycles
 SCF Done:  E(RM06) =  -1247.95535876     A.U. after    9 cycles
 SCF Done:  E(RM06) =  -1247.95535944     A.U. after    9 cycles
 SCF Done:  E(RM06) =  -1247.95535957     A.U. after    8 cycles
 SCF Done:  E(RM06) =  -1247.95535965     A.U. after    8 cycles
 SCF Done:  E(RM06) =  -1247.95535967     A.U. after    7 cycles
 Optimization completed.
    -- Stationary point found.

                         Standard orientation:
 ---------------------------------------------------------------------
 Center     Atomic      Atomic             Coordinates (Angstroms)
 Number     Number       Type             X           Y           Z
 ---------------------------------------------------------------------
      1          9           0        0.955999    1.805152    0.303768
      2          9           0        1.664710   -2.765525   -0.883327
      3          8           0       -3.244864   -2.526161   -0.243388
      4          8           0       -5.780980   -1.497458    0.202927
      5          8           0       -5.947663    0.734158    0.602420
      6          7           0        2.714240   -0.179991   -0.419899
      7          7           0        5.286936    0.827819    0.289440
      8          7           0       -1.909432    1.373293    0.319944
      9          6           0        4.755383   -0.374611    0.944235
     10          6           0        3.742328   -1.121214    0.048118
     11          6           0        3.248855    1.000058   -1.118524
     12          6           0        4.248825    1.733642   -0.211380
     13          6           0        1.361645   -0.445370   -0.329331
     14          6           0        5.902016   -1.297040    1.338419
     15          6           0        0.419497    0.555212   -0.018216
     16          6           0       -0.973413    0.353805    0.047693
     17          6           0        0.805523   -1.735703   -0.525138
     18          6           0       -1.448603   -0.969205   -0.140768
     19          6           0       -0.537393   -2.002328   -0.416814
     20          6           0       -1.559954    2.819668    0.379506
     21          6           0       -2.889805   -1.337887   -0.066601
     22          6           0       -3.230593    1.052546    0.386457
     23          6           0       -3.768175   -0.205643    0.223729
     24          6           0       -1.329669    3.394447   -1.017040
     25          6           0       -5.233653   -0.259744    0.361209
     26          1           0        4.213679   -0.042328    1.843254
     27          1           0        4.276325   -1.568799   -0.809910
     28          1           0        3.273233   -1.932559    0.611929
     29          1           0        2.431168    1.656501   -1.425423
     30          1           0        3.769625    0.653057   -2.028774
     31          1           0        4.720330    2.562820   -0.749500
     32          1           0        3.703371    2.150208    0.645769
     33          1           0        6.015764    0.615927   -0.392639
     34          1           0        6.605010   -0.766928    1.987945
     35          1           0        5.535967   -2.185522    1.864683
     36          1           0        6.447470   -1.635420    0.445152
     37          1           0       -0.932521   -3.001140   -0.579616
     38          1           0       -2.404033    3.321224    0.862958
     39          1           0       -0.686711    2.957938    1.015200
     40          1           0       -3.916831    1.873026    0.585563
     41          1           0       -0.486240    2.902986   -1.513348
     42          1           0       -2.222130    3.267020   -1.639922
     43          1           0       -1.104378    4.463416   -0.951236
     44          1           0       -6.756498   -1.444020    0.308552
 ---------------------------------------------------------------------

 The electronic state is 1-A.
 Alpha  occ. eigenvalues --  -24.82697 -24.80912 -19.26318 -19.21639 -19.19320
 Alpha  occ. eigenvalues --  -14.49367 -14.43556 -14.38926 -10.40569 -10.37171
 Alpha  occ. eigenvalues --  -10.36287 -10.35021 -10.34819 -10.34521 -10.33953
 Alpha  occ. eigenvalues --  -10.31950 -10.29546 -10.29074 -10.28951 -10.28872
 Alpha  occ. eigenvalues --  -10.28220 -10.28212 -10.27989 -10.26316 -10.24369
 Alpha  occ. eigenvalues --   -1.27855  -1.26231  -1.13697  -1.04976  -1.04450
 Alpha  occ. eigenvalues --   -1.03366  -0.99131  -0.93089  -0.89961  -0.84949
 Alpha  occ. eigenvalues --   -0.81558  -0.80687  -0.80182  -0.78261  -0.73521
 Alpha  occ. eigenvalues --   -0.72016  -0.70113  -0.68821  -0.67511  -0.64822
 Alpha  occ. eigenvalues --   -0.64241  -0.63604  -0.61145  -0.59160  -0.57946
 Alpha  occ. eigenvalues --   -0.56671  -0.54542  -0.54200  -0.53186  -0.51816
 Alpha  occ. eigenvalues --   -0.50394  -0.49618  -0.49249  -0.49018  -0.48921
 Alpha  occ. eigenvalues --   -0.48389  -0.48019  -0.47710  -0.47293  -0.46862
 Alpha  occ. eigenvalues --   -0.46220  -0.45952  -0.45105  -0.44117  -0.42808
 Alpha  occ. eigenvalues --   -0.42629  -0.41667  -0.41376  -0.41074  -0.40065
 Alpha  occ. eigenvalues --   -0.39812  -0.39248  -0.39056  -0.38720  -0.38389
 Alpha  occ. eigenvalues --   -0.37810  -0.36638  -0.36213  -0.36055  -0.33044
 Alpha  occ. eigenvalues --   -0.31941  -0.29488  -0.29246  -0.25174  -0.25141
 Alpha  occ. eigenvalues --   -0.24561  -0.21604
 Alpha virt. eigenvalues --   -0.06218  -0.05349  -0.00873   0.02055   0.04878
 Alpha virt. eigenvalues --    0.08863   0.09426   0.09935   0.10455   0.10807
 Alpha virt. eigenvalues --    0.11595   0.12010   0.12112   0.12958   0.13345

 Mulliken charges:
               1
     1  F   -0.267454
     2  F   -0.251765
     3  O   -0.285095
     4  O   -0.452339
     5  O   -0.353690
     6  N   -0.244110
     7  N   -0.344145
     8  N   -0.218501
     9  C   -0.043251
    10  C   -0.339521
    11  C   -0.342524
    12  C   -0.407328
    13  C    0.170973
    14  C   -0.703071
    15  C    0.163569
    16  C    0.217018
    17  C    0.294219
    18  C    0.264975
    19  C   -0.636146
    20  C   -0.321356
    21  C    0.157510
    22  C   -0.280409
    23  C    0.092182
    24  C   -0.630191
    25  C    0.206872
    26  H    0.216558
    27  H    0.197788
    28  H    0.228103
    29  H    0.215176
    30  H    0.215757
    31  H    0.211320
    32  H    0.229543
    33  H    0.267668
    34  H    0.240478
    35  H    0.209431
    36  H    0.188158
    37  H    0.302696
    38  H    0.213933
    39  H    0.259837
    40  H    0.275376
    41  H    0.226746
    42  H    0.220943
    43  H    0.225888
    44  H    0.408179
 Sum of Mulliken charges =   0.00000

 Dipole moment (field-independent basis, Debye):
    X=              4.8411    Y=              4.8782    Z=             -0.7159  Tot=              6.9098
 Quadrupole moment (field-independent basis, Debye-Ang):
   XX=           -152.1541   YY=           -148.2743   ZZ=           -143.4125
   XY=            -11.0473   XZ=             -5.4035   YZ=             -6.8887

 Normal termination of Gaussian 09 at Tue Aug 18 10:04:21 2020.
