 Gaussian 09, Revision D.01,
 Gaussian 09:  ES64L-G09RevD.01 24-Apr-2013

 -----------------------------------------------------
 #opt M06/lanl2dz integral=ultrafine geom=connectivity
 -----------------------------------------------------

 -------------------
 Title Card Required
 -------------------
 Symbolic Z-matrix:
 Charge =  0 Multiplicity = 1

 SCF Done:  E(RM06) =  -1109.47122344     A.U. after   17 cycles
 SCF Done:  E(RM06) =  -1109.47275383     A.U. after   15 cycles
 SCF Done:  E(RM06) =  -1109.47382005     A.U. after   14 cycles
 SCF Done:  E(RM06) =  -1109.47412738     A.U. after   13 cycles
 SCF Done:  E(RM06) =  -1109.47417227     A.U. after   12 cycles
 SCF Done:  E(RM06) =  -1109.47417670     A.U. after   12 cycles
 SCF Done:  E(RM06) =  -1109.47418882     A.U. after   10 cycles
 SCF Done:  E(RM06) =  -1109.47419245     A.U. after   10 cycles
 SCF Done:  E(RM06) =  -1109.47419289     A.U. after    9 cycles
 SCF Done:  E(RM06) =  -1109.47419421     A.U. after    9 cycles
 SCF Done:  E(RM06) =  -1109.47419427     A.U. after    8 cycles
 SCF Done:  E(RM06) =  -1109.47419432     A.U. after    7 cycles
 SCF Done:  E(RM06) =  -1109.47419432     A.U. after    7 cycles
 Optimization completed.
    -- Stationary point found.

                         Standard orientation:
 ---------------------------------------------------------------------
 Center     Atomic      Atomic             Coordinates (Angstroms)
 Number     Number       Type             X           Y           Z
 ---------------------------------------------------------------------
      1          9           0        1.931747   -3.035383   -0.279413
      2          1           0        1.250166    1.463548   -0.613991
      3          7           0        3.097632   -0.476092   -0.646395
      4          6           0        3.656962    0.791767   -1.131195
      5          6           0        4.096971    1.678598    0.043722
      6          7           0        5.052876    0.916937    0.847168
      7          6           0        4.090303   -1.222029    0.155657
      8          6           0        4.526948   -0.356611    1.345369
      9          1           0        5.560981    1.464380    1.534292
     10          1           0        2.943427    1.299921   -1.786406
     11          1           0        4.548595    0.552442   -1.725042
     12          1           0        4.961985   -1.426109   -0.478264
     13          1           0        3.675767   -2.170432    0.494192
     14          1           0        5.309480   -0.874615    1.909478
     15          1           0        3.651185   -0.221802    2.014826
     16          1           0        4.579638    2.586275   -0.334246
     17          1           0        3.199830    1.982442    0.625911
     18          8           0       -2.976956   -2.385182    0.292518
     19          8           0       -5.442380   -1.122271    0.419988
     20          8           0       -5.479511    1.133019    0.144353
     21          7           0       -1.426576    1.406034   -0.390043
     22          6           0        0.839091    0.468849   -0.488842
     23          6           0       -0.548952    0.302476   -0.334268
     24          6           0       -1.099809   -0.976737   -0.101181
     25          6           0       -0.923968    2.782038   -0.575005
     26          6           0       -2.758922    1.215391   -0.197718
     27          6           0       -3.363185   -0.002475    0.033662
     28          6           0       -2.549951   -1.223100    0.094302
     29          6           0       -0.221967   -2.074964   -0.066687
     30          6           0        1.731518   -0.623317   -0.446650
     31          6           0       -0.405843    3.383054    0.733315
     32          6           0        1.127898   -1.897354   -0.245640
     33          6           0       -4.823922    0.072034    0.198079
     34          1           0       -0.150954    2.775629   -1.350755
     35          1           0       -1.752270    3.382848   -0.963801
     36          1           0       -3.390611    2.101003   -0.234663
     37          1           0       -0.640797   -3.067234    0.077101
     38          1           0       -0.039486    4.401246    0.567781
     39          1           0       -1.209573    3.423668    1.476368
     40          1           0        0.410867    2.785566    1.153888
     41          1           0       -6.409723   -0.978741    0.516552
 ---------------------------------------------------------------------

 The electronic state is 1-A.
 Alpha  occ. eigenvalues --  -24.79912 -19.25781 -19.21073 -19.18351 -14.48454
 Alpha  occ. eigenvalues --  -14.43498 -14.39785 -10.39994 -10.35003 -10.33871
 Alpha  occ. eigenvalues --  -10.33553 -10.33345 -10.33342 -10.32595 -10.29916
 Alpha  occ. eigenvalues --  -10.29481 -10.28900 -10.28758 -10.27746 -10.27357
 Alpha  occ. eigenvalues --  -10.27292 -10.27282 -10.26860  -1.25098  -1.13139
 Alpha  occ. eigenvalues --   -1.04007  -1.03854  -1.02772  -0.99238  -0.92992
 Alpha  occ. eigenvalues --   -0.88718  -0.84690  -0.80637  -0.79802  -0.79308
 Alpha  occ. eigenvalues --   -0.77899  -0.72464  -0.69854  -0.68699  -0.67434
 Alpha  occ. eigenvalues --   -0.66295  -0.63954  -0.62440  -0.61115  -0.57687
 Alpha  occ. eigenvalues --   -0.56637  -0.55941  -0.54272  -0.52288  -0.50338
 Alpha  occ. eigenvalues --   -0.50056  -0.49786  -0.49334  -0.48772  -0.48415
 Alpha  occ. eigenvalues --   -0.47620  -0.47404  -0.47209  -0.46457  -0.45801
 Alpha  occ. eigenvalues --   -0.45368  -0.44442  -0.43488  -0.42977  -0.42282
 Alpha  occ. eigenvalues --   -0.42003  -0.41506  -0.40603  -0.39678  -0.38899
 Alpha  occ. eigenvalues --   -0.38581  -0.38054  -0.37876  -0.37814  -0.37413
 Alpha  occ. eigenvalues --   -0.36155  -0.32475  -0.31337  -0.28728  -0.28696
 Alpha  occ. eigenvalues --   -0.24871  -0.24173  -0.23946  -0.21956
 Alpha virt. eigenvalues --   -0.05506  -0.04170  -0.00033   0.02953   0.07055
 Alpha virt. eigenvalues --    0.08402   0.09412   0.10164   0.10638   0.10960
 Alpha virt. eigenvalues --    0.11464   0.12472   0.12687   0.12958   0.13621

 Mulliken charges:
               1
     1  F   -0.263589
     2  H    0.236260
     3  N   -0.220910
     4  C   -0.403092
     5  C   -0.361036
     6  N   -0.372601
     7  C   -0.382672
     8  C   -0.356483
     9  H    0.300313
    10  H    0.210458
    11  H    0.251485
    12  H    0.231306
    13  H    0.259029
    14  H    0.219520
    15  H    0.185144
    16  H    0.216183
    17  H    0.179468
    18  O   -0.290707
    19  O   -0.451814
    20  O   -0.358882
    21  N   -0.221099
    22  C   -0.464880
    23  C    0.379513
    24  C    0.201702
    25  C   -0.355891
    26  C   -0.288662
    27  C    0.095090
    28  C    0.151571
    29  C   -0.578474
    30  C    0.349106
    31  C   -0.629558
    32  C    0.220214
    33  C    0.203574
    34  H    0.225099
    35  H    0.229794
    36  H    0.273790
    37  H    0.297494
    38  H    0.222355
    39  H    0.230751
    40  H    0.224992
    41  H    0.406139
 Sum of Mulliken charges =   0.00000

 Dipole moment (field-independent basis, Debye):
    X=              6.4709    Y=              7.3760    Z=              0.3095  Tot=              9.8170
 Quadrupole moment (field-independent basis, Debye-Ang):
   XX=           -139.7434   YY=           -134.9171   ZZ=           -130.8328
   XY=              1.6432   XZ=              6.4865   YZ=             -2.3165

 Normal termination of Gaussian 09 at Tue Jul 21 13:09:32 2020.
