 Gaussian 09, Revision D.01,
 Gaussian 09:  ES64L-G09RevD.01 24-Apr-2013

 -----------------------------------------------------
 #opt M06/lanl2dz integral=ultrafine geom=connectivity
 -----------------------------------------------------

 -------------------
 Title Card Required
 -------------------
 Symbolic Z-matrix:
 Charge =  0 Multiplicity = 1

 SCF Done:  E(RM06) =  -1147.50769185     A.U. after   17 cycles
 SCF Done:  E(RM06) =  -1147.50944652     A.U. after   14 cycles
 SCF Done:  E(RM06) =  -1147.51043902     A.U. after   14 cycles
 SCF Done:  E(RM06) =  -1147.51085538     A.U. after   14 cycles
 SCF Done:  E(RM06) =  -1147.51121535     A.U. after   13 cycles
 SCF Done:  E(RM06) =  -1147.51139072     A.U. after   14 cycles
 SCF Done:  E(RM06) =  -1147.51171000     A.U. after   13 cycles
 SCF Done:  E(RM06) =  -1147.51207060     A.U. after   13 cycles
 SCF Done:  E(RM06) =  -1147.51219478     A.U. after   13 cycles
 SCF Done:  E(RM06) =  -1147.51231009     A.U. after   13 cycles
 SCF Done:  E(RM06) =  -1147.51236390     A.U. after   13 cycles
 SCF Done:  E(RM06) =  -1147.51238528     A.U. after   12 cycles
 SCF Done:  E(RM06) =  -1147.51238844     A.U. after    9 cycles
 SCF Done:  E(RM06) =  -1147.51238967     A.U. after    8 cycles
 SCF Done:  E(RM06) =  -1147.51238991     A.U. after    8 cycles
 SCF Done:  E(RM06) =  -1147.51239008     A.U. after    8 cycles
 SCF Done:  E(RM06) =  -1147.51239018     A.U. after    8 cycles
 SCF Done:  E(RM06) =  -1147.51239023     A.U. after    8 cycles
 SCF Done:  E(RM06) =  -1147.51239023     A.U. after    8 cycles
 Optimization completed.
    -- Stationary point found.

                         Standard orientation:
 ---------------------------------------------------------------------
 Center     Atomic      Atomic             Coordinates (Angstroms)
 Number     Number       Type             X           Y           Z
 ---------------------------------------------------------------------
      1          6           0       -1.212415    2.630114   -0.485590
      2          6           0       -0.545045    3.400088    0.642176
      3          6           0       -1.961659    3.742997    0.219177
      4          1           0       -2.136848    4.656620   -0.336018
      5          1           0       -2.761287    3.468355    0.899581
      6          1           0       -0.422020    2.874421    1.584267
      7          1           0        0.260117    4.080770    0.387787
      8          1           0       -0.863248    2.817183   -1.498183
      9          7           0        3.075406   -0.155881   -0.084415
     10          6           0        3.520357    1.235143    0.062124
     11          6           0        4.929325    1.267175    0.658334
     12          7           0        5.825564    0.467295   -0.172884
     13          6           0        4.011971   -0.990384   -0.867825
     14          6           0        5.405963   -0.933581   -0.251199
     15          1           0        6.812841    0.602964    0.021832
     16          1           0        2.836304    1.762830    0.737088
     17          1           0        3.530376    1.752879   -0.914389
     18          1           0        4.066712   -0.597130   -1.897409
     19          1           0        3.653360   -2.019159   -0.899261
     20          1           0        6.105131   -1.489080   -0.884331
     21          1           0        5.367386   -1.421090    0.742464
     22          1           0        5.283205    2.303298    0.689125
     23          1           0        4.867396    0.888124    1.698164
     24          8           0       -2.834427   -2.664103    0.367851
     25          8           0       -5.402630   -1.703000   -0.047589
     26          8           0       -5.654539    0.550762   -0.192169
     27          7           0       -1.614270    1.254908   -0.251095
     28          6           0        0.730140    0.544323   -0.202030
     29          6           0       -0.639517    0.240916   -0.115466
     30          6           0       -1.075761   -1.086315    0.082376
     31          6           0       -2.934726    0.922957   -0.248714
     32          6           0       -3.428442   -0.350893   -0.066268
     33          6           0       -2.506930   -1.474549    0.147439
     34          6           0       -0.098935   -2.087558    0.232339
     35          6           0        1.716079   -0.450241   -0.055876
     36          6           0        1.236465   -1.768623    0.178352
     37          6           0       -4.898158   -0.437697   -0.102809
     38          1           0       -3.641060    1.734581   -0.402495
     39          1           0       -0.425769   -3.106503    0.420195
     40          1           0       -6.384207   -1.667978   -0.076713
     41          9           0        2.160890   -2.784339    0.413004
     42          1           0        1.037188    1.561193   -0.413960
 ---------------------------------------------------------------------

 The electronic state is 1-A.
 Alpha  occ. eigenvalues --  -24.79867 -19.25817 -19.21124 -19.18502 -14.48626
 Alpha  occ. eigenvalues --  -14.43071 -14.39237 -10.40037 -10.34953 -10.33969
 Alpha  occ. eigenvalues --  -10.33261 -10.33150 -10.33094 -10.33055 -10.29622
 Alpha  occ. eigenvalues --  -10.28756 -10.28681 -10.28618 -10.28584 -10.28147
 Alpha  occ. eigenvalues --  -10.27429 -10.27362 -10.27344 -10.27284  -1.25037
 Alpha  occ. eigenvalues --   -1.13177  -1.04186  -1.03928  -1.03113  -0.98631
 Alpha  occ. eigenvalues --   -0.92788  -0.91055  -0.88175  -0.83170  -0.79600
 Alpha  occ. eigenvalues --   -0.79377  -0.78312  -0.72401  -0.70300  -0.68356
 Alpha  occ. eigenvalues --   -0.66670  -0.66125  -0.64919  -0.63296  -0.61332
 Alpha  occ. eigenvalues --   -0.59840  -0.57639  -0.57315  -0.56505  -0.54469
 Alpha  occ. eigenvalues --   -0.53516  -0.52155  -0.50467  -0.49860  -0.48720
 Alpha  occ. eigenvalues --   -0.48541  -0.48175  -0.47805  -0.47385  -0.46939
 Alpha  occ. eigenvalues --   -0.46718  -0.45956  -0.45324  -0.44358  -0.43850
 Alpha  occ. eigenvalues --   -0.43041  -0.42431  -0.41442  -0.40975  -0.40219
 Alpha  occ. eigenvalues --   -0.39427  -0.38997  -0.38253  -0.37878  -0.37499
 Alpha  occ. eigenvalues --   -0.36758  -0.35952  -0.35045  -0.34229  -0.32429
 Alpha  occ. eigenvalues --   -0.31081  -0.28774  -0.28602  -0.24447  -0.24265
 Alpha  occ. eigenvalues --   -0.23618  -0.22347
 Alpha virt. eigenvalues --   -0.05431  -0.04232   0.00002   0.02869   0.07577
 Alpha virt. eigenvalues --    0.08179   0.09418   0.09648   0.10061   0.10595
 Alpha virt. eigenvalues --    0.10703   0.11457   0.12106   0.12621   0.13350

 Mulliken charges:
               1
     1  C   -0.156703
     2  C   -0.476653
     3  C   -0.513774
     4  H    0.254544
     5  H    0.249807
     6  H    0.249172
     7  H    0.254504
     8  H    0.276102
     9  N   -0.235767
    10  C   -0.321918
    11  C   -0.389260
    12  N   -0.382871
    13  C   -0.334233
    14  C   -0.374907
    15  H    0.300866
    16  H    0.204493
    17  H    0.212091
    18  H    0.217431
    19  H    0.244829
    20  H    0.209767
    21  H    0.199189
    22  H    0.210189
    23  H    0.188402
    24  O   -0.289425
    25  O   -0.452015
    26  O   -0.356293
    27  N   -0.223358
    28  C   -0.428324
    29  C    0.336905
    30  C    0.178406
    31  C   -0.271345
    32  C    0.084654
    33  C    0.150620
    34  C   -0.577029
    35  C    0.333076
    36  C    0.234869
    37  C    0.201459
    38  H    0.289007
    39  H    0.297311
    40  H    0.406402
    41  F   -0.262951
    42  H    0.262730
 Sum of Mulliken charges =   0.00000

 Dipole moment (field-independent basis, Debye):
    X=              6.2090    Y=              7.1077    Z=             -0.6455  Tot=              9.4598
 Quadrupole moment (field-independent basis, Debye-Ang):
   XX=           -135.0189   YY=           -139.1281   ZZ=           -138.9001
   XY=             -3.5142   XZ=              3.3821   YZ=              3.5845

 Normal termination of Gaussian 09 at Tue Jul 21 07:20:08 2020.
