 Gaussian 09, Revision D.01,
 Gaussian 09:  ES64L-G09RevD.01 24-Apr-2013

 -----------------------------------
 # opt b3lyp/3-21g geom=connectivity
 -----------------------------------

 -------------------
 Title Card Required
 -------------------
 Symbolic Z-matrix:
 Charge =  0 Multiplicity = 1

 SCF Done:  E(RB3LYP) =  -1104.22458747     A.U. after   17 cycles
 SCF Done:  E(RB3LYP) =  -1104.22855621     A.U. after   13 cycles
 SCF Done:  E(RB3LYP) =  -1104.22887956     A.U. after   13 cycles
 SCF Done:  E(RB3LYP) =  -1104.22910712     A.U. after   13 cycles
 SCF Done:  E(RB3LYP) =  -1104.22958703     A.U. after   13 cycles
 SCF Done:  E(RB3LYP) =  -1104.23006342     A.U. after   14 cycles
 SCF Done:  E(RB3LYP) =  -1104.23046586     A.U. after   15 cycles
 SCF Done:  E(RB3LYP) =  -1104.23100162     A.U. after   13 cycles
 SCF Done:  E(RB3LYP) =  -1104.23116616     A.U. after   13 cycles
 SCF Done:  E(RB3LYP) =  -1104.23132110     A.U. after   13 cycles
 SCF Done:  E(RB3LYP) =  -1104.23145243     A.U. after   12 cycles
 SCF Done:  E(RB3LYP) =  -1104.23154072     A.U. after   13 cycles
 SCF Done:  E(RB3LYP) =  -1104.23157679     A.U. after   12 cycles
 SCF Done:  E(RB3LYP) =  -1104.23159116     A.U. after   11 cycles
 SCF Done:  E(RB3LYP) =  -1104.23160521     A.U. after    9 cycles
 SCF Done:  E(RB3LYP) =  -1104.23160704     A.U. after   10 cycles
 SCF Done:  E(RB3LYP) =  -1104.23160724     A.U. after    8 cycles
 Optimization completed.
    -- Stationary point found.

                         Standard orientation:
 ---------------------------------------------------------------------
 Center     Atomic      Atomic             Coordinates (Angstroms)
 Number     Number       Type             X           Y           Z
 ---------------------------------------------------------------------
      1          9           0        1.920667   -2.997259   -0.213093
      2          1           0        1.216043    1.483613   -0.566076
      3          7           0        3.063119   -0.442156   -0.633263
      4          6           0        3.643056    0.821156   -1.132571
      5          6           0        4.194738    1.661033    0.038495
      6          7           0        5.210898    0.832406    0.728414
      7          6           0        4.078320   -1.248517    0.098146
      8          6           0        4.632466   -0.420255    1.273180
      9          1           0        5.713345    1.363784    1.444848
     10          1           0        2.903167    1.368538   -1.719290
     11          1           0        4.487546    0.559769   -1.780120
     12          1           0        4.901037   -1.463441   -0.592226
     13          1           0        3.627823   -2.175299    0.435212
     14          1           0        5.426591   -0.983465    1.774257
     15          1           0        3.811584   -0.244073    1.992608
     16          1           0        4.678218    2.564221   -0.348383
     17          1           0        3.353276    1.958470    0.692289
     18          8           0       -2.971483   -2.382432    0.290278
     19          8           0       -5.418100   -1.179550    0.363650
     20          8           0       -5.509497    1.085026    0.100058
     21          7           0       -1.462842    1.428261   -0.345972
     22          6           0        0.808397    0.492594   -0.455979
     23          6           0       -0.577013    0.333506   -0.303878
     24          6           0       -1.113362   -0.948495   -0.086802
     25          6           0       -0.973430    2.823463   -0.511586
     26          6           0       -2.795223    1.211507   -0.181379
     27          6           0       -3.376060   -0.008318    0.026419
     28          6           0       -2.560660   -1.220641    0.098387
     29          6           0       -0.234407   -2.036727   -0.049126
     30          6           0        1.699640   -0.595442   -0.429042
     31          6           0       -0.437685    3.411039    0.808417
     32          6           0        1.111375   -1.875433   -0.226784
     33          6           0       -4.838052    0.046412    0.160517
     34          1           0       -0.208928    2.831991   -1.292995
     35          1           0       -1.820449    3.413574   -0.870411
     36          1           0       -3.443812    2.078968   -0.224875
     37          1           0       -0.659703   -3.020540    0.100586
     38          1           0       -0.085756    4.434977    0.643552
     39          1           0       -1.232775    3.429253    1.559594
     40          1           0        0.390038    2.810503    1.195463
     41          1           0       -6.401432   -1.030734    0.439185
 ---------------------------------------------------------------------

 The electronic state is 1-A.
 Alpha  occ. eigenvalues --  -24.57346 -19.06388 -19.01050 -18.99004 -14.33751
 Alpha  occ. eigenvalues --  -14.28767 -14.24586 -10.24672 -10.21227 -10.19660
 Alpha  occ. eigenvalues --  -10.19624 -10.19488 -10.19314 -10.19219 -10.17015
 Alpha  occ. eigenvalues --  -10.16333 -10.15922 -10.15696 -10.14299 -10.14141
 Alpha  occ. eigenvalues --  -10.13662 -10.13471 -10.13429  -1.20619  -1.08647
 Alpha  occ. eigenvalues --   -1.01206  -1.00390  -0.99672  -0.96947  -0.90753
 Alpha  occ. eigenvalues --   -0.86785  -0.82715  -0.78754  -0.78127  -0.77401
 Alpha  occ. eigenvalues --   -0.75971  -0.70810  -0.67752  -0.67064  -0.65751
 Alpha  occ. eigenvalues --   -0.64542  -0.61246  -0.60773  -0.59360  -0.56030
 Alpha  occ. eigenvalues --   -0.54272  -0.53929  -0.52496  -0.50296  -0.48777
 Alpha  occ. eigenvalues --   -0.48047  -0.47837  -0.47693  -0.47004  -0.46924
 Alpha  occ. eigenvalues --   -0.45533  -0.44937  -0.44847  -0.44061  -0.43868
 Alpha  occ. eigenvalues --   -0.42910  -0.42333  -0.41659  -0.41067  -0.40639
 Alpha  occ. eigenvalues --   -0.40085  -0.39701  -0.38523  -0.38401  -0.36942
 Alpha  occ. eigenvalues --   -0.36459  -0.36238  -0.35849  -0.35460  -0.35114
 Alpha  occ. eigenvalues --   -0.33948  -0.29530  -0.28372  -0.26228  -0.25574
 Alpha  occ. eigenvalues --   -0.22656  -0.21770  -0.21535  -0.19703
 Alpha virt. eigenvalues --   -0.03934  -0.02616   0.01432   0.04658   0.07415
 Alpha virt. eigenvalues --    0.08761   0.09457   0.10994   0.11706   0.11996
 Alpha virt. eigenvalues --    0.12256   0.13145   0.14031   0.14432   0.15093

 Mulliken charges:
               1
     1  F   -0.285832
     2  H    0.193318
     3  N   -0.678302
     4  C   -0.194810
     5  C   -0.227792
     6  N   -0.562359
     7  C   -0.231220
     8  C   -0.222824
     9  H    0.276394
    10  H    0.199474
    11  H    0.228582
    12  H    0.216599
    13  H    0.232151
    14  H    0.202709
    15  H    0.174267
    16  H    0.198988
    17  H    0.169034
    18  O   -0.500661
    19  O   -0.539958
    20  O   -0.521017
    21  N   -0.827995
    22  C   -0.218471
    23  C    0.366091
    24  C   -0.074790
    25  C   -0.220034
    26  C    0.211334
    27  C   -0.206259
    28  C    0.403175
    29  C   -0.197185
    30  C    0.327989
    31  C   -0.564042
    32  C    0.280793
    33  C    0.661265
    34  H    0.220988
    35  H    0.227984
    36  H    0.254176
    37  H    0.240537
    38  H    0.198981
    39  H    0.215515
    40  H    0.214766
    41  H    0.358440
 Sum of Mulliken charges =   0.00000

 Dipole moment (field-independent basis, Debye):
    X=              5.4454    Y=              6.1819    Z=              0.3882  Tot=              8.2474
 Quadrupole moment (field-independent basis, Debye-Ang):
   XX=           -135.2598   YY=           -131.0152   ZZ=           -132.0655
   XY=              0.4195   XZ=              5.5054   YZ=             -1.8096

 Normal termination of Gaussian 09 at Mon Jul  6 11:16:32 2020.
