 Gaussian 09, Revision D.01,
 Gaussian 09:  ES64L-G09RevD.01 24-Apr-2013

 -----------------------------------------------------
 #opt M06/lanl2dz integral=ultrafine geom=connectivity
 -----------------------------------------------------

 -------------------
 Title Card Required
 -------------------
 Symbolic Z-matrix:
 Charge =  0 Multiplicity = 1

 SCF Done:  E(RM06) =  -1380.59857458     A.U. after   18 cycles
 SCF Done:  E(RM06) =  -1380.60148177     A.U. after   15 cycles
 SCF Done:  E(RM06) =  -1380.60273811     A.U. after   14 cycles
 SCF Done:  E(RM06) =  -1380.60322280     A.U. after   14 cycles
 SCF Done:  E(RM06) =  -1380.60345354     A.U. after   14 cycles
 SCF Done:  E(RM06) =  -1380.60364806     A.U. after   14 cycles
 SCF Done:  E(RM06) =  -1380.60382494     A.U. after   15 cycles
 SCF Done:  E(RM06) =  -1380.60394263     A.U. after   14 cycles
 SCF Done:  E(RM06) =  -1380.60399091     A.U. after   14 cycles
 SCF Done:  E(RM06) =  -1380.60404671     A.U. after   13 cycles
 SCF Done:  E(RM06) =  -1380.60406286     A.U. after   14 cycles
 SCF Done:  E(RM06) =  -1380.60406994     A.U. after    9 cycles
 SCF Done:  E(RM06) =  -1380.60407101     A.U. after    9 cycles
 SCF Done:  E(RM06) =  -1380.60407123     A.U. after    9 cycles
 SCF Done:  E(RM06) =  -1380.60407151     A.U. after    8 cycles
 SCF Done:  E(RM06) =  -1380.60407164     A.U. after    9 cycles
 SCF Done:  E(RM06) =  -1380.60407165     A.U. after    8 cycles
 Optimization completed.
    -- Stationary point found.

                         Standard orientation:
 ---------------------------------------------------------------------
 Center     Atomic      Atomic             Coordinates (Angstroms)
 Number     Number       Type             X           Y           Z
 ---------------------------------------------------------------------
      1          9           0        0.588393    1.837142   -1.033806
      2          9           0        1.769582   -2.550948    0.511366
      3          8           0       -3.320127   -2.480434    0.690029
      4          8           0       -5.815441   -1.729658   -0.235615
      5          8           0       -6.169359    0.515501   -0.244646
      6          7           0       -2.138763    1.343174   -0.346921
      7          7           0        2.576557   -0.002535   -0.413095
      8          7           0        5.349869    0.157701    0.226349
      9          7           0       -0.814202   -3.236551    0.739920
     10          6           0       -1.808746    2.763340   -0.434978
     11          6           0       -1.153142    3.417264    0.760851
     12          6           0       -2.598298    3.739276    0.418106
     13          6           0       -1.141077    0.353436   -0.201371
     14          6           0        4.396137    1.105566    0.818746
     15          6           0        4.760202   -1.137816   -0.149202
     16          6           0        3.148907    1.304329   -0.070499
     17          6           0        3.524005   -0.933660   -1.041664
     18          6           0        1.244175   -0.310082   -0.217294
     19          6           0       -3.451272    0.983011   -0.342665
     20          6           0       -1.542443   -0.969615    0.149400
     21          6           0        0.212202    0.633712   -0.426017
     22          6           0       -0.526763   -1.960219    0.357400
     23          6           0       -3.909912   -0.288096   -0.096101
     24          6           0        0.811887   -1.578522    0.192082
     25          6           0       -2.963169   -1.338671    0.277713
     26          6           0        5.088396    2.438064    1.077044
     27          6           0        5.805932   -1.994686   -0.849263
     28          6           0       -5.372012   -0.440891   -0.181091
     29          1           0       -1.487869    3.085883   -1.418421
     30          1           0       -0.380113    4.150838    0.565877
     31          1           0       -0.980158    2.791165    1.631383
     32          1           0       -3.364728    3.345254    1.078235
     33          1           0       -2.833583    4.702694   -0.018634
     34          1           0        4.054134    0.668603    1.769435
     35          1           0        4.423110   -1.629362    0.775108
     36          1           0        2.405335    1.905550    0.461809
     37          1           0        3.438610    1.853353   -0.985389
     38          1           0        3.856195   -0.499149   -2.004199
     39          1           0        3.031153   -1.885714   -1.251585
     40          1           0       -4.170948    1.773547   -0.535462
     41          1           0        5.894724    0.573599   -0.534038
     42          1           0        5.960110    2.290249    1.721560
     43          1           0        5.432527    2.881316    0.130870
     44          1           0        4.411185    3.153606    1.557193
     45          1           0        5.406442   -2.983995   -1.097908
     46          1           0        6.132731   -1.516029   -1.784650
     47          1           0        6.682207   -2.120077   -0.206007
     48          1           0       -1.795766   -3.469398    0.893404
     49          1           0       -0.065722   -3.899154    0.876831
     50          1           0       -6.796226   -1.738769   -0.292536
 ---------------------------------------------------------------------

 The electronic state is 1-A.
 Alpha  occ. eigenvalues --  -24.80696 -24.80608 -19.26112 -19.21448 -19.19339
 Alpha  occ. eigenvalues --  -14.48856 -14.42865 -14.40562 -14.38376 -10.40373
 Alpha  occ. eigenvalues --  -10.34969 -10.34790 -10.34148 -10.34098 -10.33613
 Alpha  occ. eigenvalues --  -10.33417 -10.33325 -10.32152 -10.28723 -10.28567
 Alpha  occ. eigenvalues --  -10.28545 -10.28216 -10.28064 -10.27794 -10.27616
 Alpha  occ. eigenvalues --  -10.27490 -10.24209 -10.23894  -1.25670  -1.25564
 Alpha  occ. eigenvalues --   -1.13464  -1.05008  -1.04224  -1.03239  -0.98522
 Alpha  occ. eigenvalues --   -0.95022  -0.92517  -0.90293  -0.87196  -0.83310
 Alpha  occ. eigenvalues --   -0.81352  -0.80147  -0.76675  -0.73941  -0.72016
 Alpha  occ. eigenvalues --   -0.71521  -0.69861  -0.67784  -0.65594  -0.64189
 Alpha  occ. eigenvalues --   -0.63333  -0.62629  -0.61076  -0.60614  -0.58745
 Alpha  occ. eigenvalues --   -0.58051  -0.56805  -0.55416  -0.53963  -0.53144
 Alpha  occ. eigenvalues --   -0.52695  -0.52018  -0.50756  -0.50079  -0.49297
 Alpha  occ. eigenvalues --   -0.48484  -0.48317  -0.48222  -0.47679  -0.46985
 Alpha  occ. eigenvalues --   -0.46807  -0.46526  -0.46095  -0.45438  -0.44717
 Alpha  occ. eigenvalues --   -0.44497  -0.43457  -0.42504  -0.41699  -0.41322
 Alpha  occ. eigenvalues --   -0.40890  -0.40689  -0.40108  -0.39900  -0.39404
 Alpha  occ. eigenvalues --   -0.39026  -0.38638  -0.38051  -0.37843  -0.35749
 Alpha  occ. eigenvalues --   -0.35382  -0.35078  -0.34406  -0.33798  -0.33373
 Alpha  occ. eigenvalues --   -0.32658  -0.30905  -0.28968  -0.25985  -0.25388
 Alpha  occ. eigenvalues --   -0.24294  -0.22140  -0.21041
 Alpha virt. eigenvalues --   -0.05331  -0.04459   0.00473   0.02382   0.05832
 Alpha virt. eigenvalues --    0.08748   0.09103   0.10022   0.10118   0.10400
 Alpha virt. eigenvalues --    0.11224   0.11461   0.12048   0.12549   0.12964

 Mulliken charges:
               1
     1  F   -0.256107
     2  F   -0.268763
     3  O   -0.347061
     4  O   -0.453155
     5  O   -0.349351
     6  N   -0.243722
     7  N   -0.252213
     8  N   -0.353061
     9  N   -0.757319
    10  C   -0.099131
    11  C   -0.471401
    12  C   -0.515262
    13  C    0.251240
    14  C   -0.053422
    15  C   -0.064458
    16  C   -0.337885
    17  C   -0.365365
    18  C    0.319967
    19  C   -0.281350
    20  C    0.184328
    21  C    0.048883
    22  C    0.155135
    23  C    0.106793
    24  C   -0.124333
    25  C    0.181495
    26  C   -0.707733
    27  C   -0.711694
    28  C    0.195640
    29  H    0.280523
    30  H    0.262051
    31  H    0.238507
    32  H    0.245134
    33  H    0.253383
    34  H    0.218040
    35  H    0.245443
    36  H    0.217491
    37  H    0.195536
    38  H    0.200872
    39  H    0.230203
    40  H    0.296731
    41  H    0.251783
    42  H    0.240959
    43  H    0.187229
    44  H    0.203847
    45  H    0.211701
    46  H    0.183452
    47  H    0.238902
    48  H    0.413179
    49  H    0.347388
    50  H    0.406953
 Sum of Mulliken charges =   0.00000

 Dipole moment (field-independent basis, Debye):
    X=              4.1061    Y=              3.6165    Z=             -1.2423  Tot=              5.6109
 Quadrupole moment (field-independent basis, Debye-Ang):
   XX=           -176.0454   YY=           -151.3458   ZZ=           -162.1517
   XY=             -3.3146   XZ=             -4.2597   YZ=              2.5719

 Normal termination of Gaussian 09 at Tue Jul 21 17:50:25 2020.
