 Gaussian 09, Revision D.01,
 Gaussian 09:  ES64L-G09RevD.01 24-Apr-2013

 -----------------------------------------------------
 #opt M06/lanl2dz integral=ultrafine geom=connectivity
 -----------------------------------------------------

 -------------------
 Title Card Required
 -------------------
 Symbolic Z-matrix:
 Charge =  0 Multiplicity = 1

 SCF Done:  E(RM06) =  -932.162049832     A.U. after   18 cycles
 SCF Done:  E(RM06) =  -932.163654835     A.U. after   13 cycles
 SCF Done:  E(RM06) =  -932.163787920     A.U. after   13 cycles
 SCF Done:  E(RM06) =  -932.163773566     A.U. after   13 cycles
 SCF Done:  E(RM06) =  -932.163812498     A.U. after   10 cycles
 SCF Done:  E(RM06) =  -932.163812878     A.U. after    9 cycles
 SCF Done:  E(RM06) =  -932.163815001     A.U. after    9 cycles
 SCF Done:  E(RM06) =  -932.163815398     A.U. after    8 cycles
 SCF Done:  E(RM06) =  -932.163815738     A.U. after    8 cycles
 SCF Done:  E(RM06) =  -932.163816137     A.U. after    9 cycles
 SCF Done:  E(RM06) =  -932.163816936     A.U. after   12 cycles
 SCF Done:  E(RM06) =  -932.163818357     A.U. after   12 cycles
 SCF Done:  E(RM06) =  -932.163819623     A.U. after   12 cycles
 SCF Done:  E(RM06) =  -932.163821455     A.U. after   12 cycles
 SCF Done:  E(RM06) =  -932.163821769     A.U. after   12 cycles
 SCF Done:  E(RM06) =  -932.163821858     A.U. after   12 cycles
 SCF Done:  E(RM06) =  -932.163821945     A.U. after    8 cycles
 Optimization completed.
    -- Stationary point found.

                         Standard orientation:
 ---------------------------------------------------------------------
 Center     Atomic      Atomic             Coordinates (Angstroms)
 Number     Number       Type             X           Y           Z
 ---------------------------------------------------------------------
      1          8           0        4.079547    0.559573   -0.122599
      2          8           0        3.743162   -1.748346    0.166229
      3          8           0       -1.349729   -2.576608    0.216805
      4          8           0       -4.051183   -1.981700    0.119621
      5          8           0       -4.632186    0.199222   -0.145117
      6          7           0       -0.751825    1.494318   -0.306714
      7          6           0        0.367834    0.647939   -0.177523
      8          6           0        0.150584   -0.740662   -0.004846
      9          6           0        1.683458    1.179671   -0.230163
     10          6           0       -0.596994    2.959621   -0.427832
     11          6           0        2.718885    0.280948   -0.113173
     12          6           0        2.510321   -1.099244    0.056348
     13          6           0        1.246800   -1.629535    0.115640
     14          6           0       -2.003785    0.973517   -0.238460
     15          6           0       -1.213169   -1.340413    0.061649
     16          6           0       -2.296850   -0.363709   -0.067458
     17          6           0        4.767234   -0.734183   -0.045141
     18          6           0       -0.366483    3.621248    0.931864
     19          6           0       -3.738039   -0.664642   -0.037282
     20          1           0        1.890192    2.235481   -0.351978
     21          1           0        0.218007    3.174530   -1.126445
     22          1           0       -1.512275    3.346184   -0.886850
     23          1           0        1.038408   -2.685624    0.249440
     24          1           0       -2.832478    1.672938   -0.329410
     25          1           0        5.451676   -0.723408    0.805354
     26          1           0        5.280725   -0.921217   -0.993505
     27          1           0       -1.217855    3.432396    1.594693
     28          1           0        0.533837    3.233432    1.420076
     29          1           0       -0.255173    4.703816    0.815555
     30          1           0       -5.027952   -2.089214    0.128817
 ---------------------------------------------------------------------

 The electronic state is 1-A.
 Alpha  occ. eigenvalues --  -19.29210 -19.28471 -19.26055 -19.21359 -19.18832
 Alpha  occ. eigenvalues --  -14.48912 -10.40287 -10.39362 -10.35460 -10.34356
 Alpha  occ. eigenvalues --  -10.34341 -10.34051 -10.33637 -10.32748 -10.29162
 Alpha  occ. eigenvalues --  -10.28406 -10.27962 -10.27667 -10.26801  -1.17534
 Alpha  occ. eigenvalues --   -1.13425  -1.08395  -1.04519  -1.04163  -1.03213
 Alpha  occ. eigenvalues --   -0.90430  -0.85056  -0.81653  -0.80000  -0.78776
 Alpha  occ. eigenvalues --   -0.73145  -0.70629  -0.68649  -0.66985  -0.64484
 Alpha  occ. eigenvalues --   -0.63045  -0.60345  -0.57159  -0.55561  -0.54995
 Alpha  occ. eigenvalues --   -0.53333  -0.51294  -0.50110  -0.49767  -0.49277
 Alpha  occ. eigenvalues --   -0.47862  -0.47508  -0.46849  -0.45997  -0.45692
 Alpha  occ. eigenvalues --   -0.44037  -0.43233  -0.41889  -0.41207  -0.40808
 Alpha  occ. eigenvalues --   -0.40478  -0.39668  -0.39445  -0.39061  -0.38149
 Alpha  occ. eigenvalues --   -0.37843  -0.34323  -0.32409  -0.28974  -0.28492
 Alpha  occ. eigenvalues --   -0.26458  -0.24658  -0.23394
 Alpha virt. eigenvalues --   -0.05776  -0.04767  -0.00426   0.02629   0.06462
 Alpha virt. eigenvalues --    0.08768   0.08920   0.09493   0.10133   0.10720
 Alpha virt. eigenvalues --    0.11818   0.12562   0.13034   0.13847   0.14662

 Mulliken charges:
               1
     1  O   -0.333776
     2  O   -0.328240
     3  O   -0.290383
     4  O   -0.451534
     5  O   -0.356847
     6  N   -0.212569
     7  C    0.400023
     8  C    0.189222
     9  C   -0.443970
    10  C   -0.354679
    11  C    0.199387
    12  C    0.231896
    13  C   -0.511780
    14  C   -0.286389
    15  C    0.163808
    16  C    0.090625
    17  C   -0.154216
    18  C   -0.626864
    19  C    0.207429
    20  H    0.255344
    21  H    0.228993
    22  H    0.230033
    23  H    0.299411
    24  H    0.277768
    25  H    0.244165
    26  H    0.241863
    27  H    0.228251
    28  H    0.231295
    29  H    0.224807
    30  H    0.406925
 Sum of Mulliken charges =   0.00000

 Dipole moment (field-independent basis, Debye):
    X=              4.1252    Y=              6.0877    Z=             -0.6493  Tot=              7.3823
 Quadrupole moment (field-independent basis, Debye-Ang):
   XX=           -103.0626   YY=           -108.0362   ZZ=           -108.0965
   XY=             -2.9426   XZ=             -1.1563   YZ=              0.6025

 Normal termination of Gaussian 09 at Sat Aug 22 21:52:39 2020.
