 Gaussian 09, Revision D.01,
 Gaussian 09:  ES64L-G09RevD.01 24-Apr-2013

 -----------------------------------------------------
 #opt M06/lanl2dz integral=ultrafine geom=connectivity
 -----------------------------------------------------

 -------------------
 Title Card Required
 -------------------
 Symbolic Z-matrix:
 Charge =  0 Multiplicity = 1

 SCF Done:  E(RM06) =  -1338.33509601     A.U. after   18 cycles
 SCF Done:  E(RM06) =  -1338.33820759     A.U. after   14 cycles
 SCF Done:  E(RM06) =  -1338.33869448     A.U. after   14 cycles
 SCF Done:  E(RM06) =  -1338.33931003     A.U. after   14 cycles
 SCF Done:  E(RM06) =  -1338.33984600     A.U. after   14 cycles
 SCF Done:  E(RM06) =  -1338.33991744     A.U. after   14 cycles
 SCF Done:  E(RM06) =  -1338.33991780     A.U. after   14 cycles
 SCF Done:  E(RM06) =  -1338.33998932     A.U. after   13 cycles
 SCF Done:  E(RM06) =  -1338.33999828     A.U. after   13 cycles
 SCF Done:  E(RM06) =  -1338.34001174     A.U. after   12 cycles
 SCF Done:  E(RM06) =  -1338.34001623     A.U. after   12 cycles
 SCF Done:  E(RM06) =  -1338.34001838     A.U. after   12 cycles
 SCF Done:  E(RM06) =  -1338.34002086     A.U. after    9 cycles
 SCF Done:  E(RM06) =  -1338.34002144     A.U. after    9 cycles
 SCF Done:  E(RM06) =  -1338.34002153     A.U. after    8 cycles
 SCF Done:  E(RM06) =  -1338.34002153     A.U. after    8 cycles
 SCF Done:  E(RM06) =  -1338.34002152     A.U. after    7 cycles
 Optimization completed.
    -- Stationary point found.

                         Standard orientation:
 ---------------------------------------------------------------------
 Center     Atomic      Atomic             Coordinates (Angstroms)
 Number     Number       Type             X           Y           Z
 ---------------------------------------------------------------------
      1         17           0       -0.828525    1.845676   -1.098352
      2          9           0        1.121214    2.146317    2.106090
      3          9           0       -1.691601   -2.861305    0.781265
      4          8           0        3.240336   -2.892358    0.414820
      5          8           0        5.753697   -2.145850   -0.536075
      6          8           0        6.154742    0.092217   -0.606963
      7          7           0       -2.608009   -0.319747    0.033592
      8          7           0       -4.510515    1.711750   -1.111243
      9          7           0        2.157710    1.038985   -0.304230
     10          6           0       -4.933039   -0.567452   -0.125400
     11          6           0       -6.273415   -1.016957   -0.645167
     12          6           0       -5.890424   -1.280629    0.809515
     13          6           0       -4.610560    0.911898    0.104307
     14          6           0       -3.629829   -1.221793   -0.550372
     15          6           0       -3.235225    0.804883    0.767871
     16          6           0       -1.255466   -0.606007    0.060774
     17          6           0        1.934257    2.472232   -0.218029
     18          6           0        1.370165    3.054050    1.060215
     19          6           0        2.814755    3.288401    0.733063
     20          6           0       -0.252406    0.336089   -0.274173
     21          6           0        1.132214    0.072229   -0.147835
     22          6           0       -0.770800   -1.896874    0.398354
     23          6           0        1.530162   -1.261409    0.118476
     24          6           0        0.558056   -2.238405    0.382285
     25          6           0        3.457236    0.625278   -0.411374
     26          6           0        2.950469   -1.713764    0.110478
     27          6           0        3.897591   -0.667634   -0.274247
     28          6           0        5.347654   -0.847443   -0.473635
     29          1           0       -7.026773   -0.258028   -0.842414
     30          1           0       -6.309506   -1.864979   -1.322241
     31          1           0       -5.662287   -2.301987    1.098542
     32          1           0       -6.386670   -0.695542    1.579185
     33          1           0       -5.344552    1.367151    0.781975
     34          1           0       -3.548146   -2.249909   -0.181114
     35          1           0       -3.522102   -1.238109   -1.646008
     36          1           0       -2.666139    1.733743    0.674904
     37          1           0       -3.336085    0.550232    1.832778
     38          1           0       -5.346100    1.744311   -1.684930
     39          1           0       -3.653429    1.581926   -1.641243
     40          1           0        1.620619    2.949533   -1.138644
     41          1           0        0.614748    3.829353    1.014557
     42          1           0        3.524344    2.741123    1.347418
     43          1           0        3.138680    4.271430    0.414666
     44          1           0        0.890629   -3.244940    0.619041
     45          1           0        4.191795    1.402183   -0.605780
     46          1           0        6.726525   -2.188244   -0.666626
 ---------------------------------------------------------------------

 The electronic state is 1-A.
 Alpha  occ. eigenvalues --  -24.80911 -24.80413 -19.26773 -19.22168 -19.19949
 Alpha  occ. eigenvalues --  -14.50100 -14.42721 -14.37579 -10.41078 -10.37501
 Alpha  occ. eigenvalues --  -10.36219 -10.35369 -10.35299 -10.34607 -10.34330
 Alpha  occ. eigenvalues --  -10.34327 -10.34157 -10.29701 -10.29395 -10.29097
 Alpha  occ. eigenvalues --  -10.28984 -10.28953 -10.28517 -10.28291 -10.27042
 Alpha  occ. eigenvalues --  -10.25831 -10.25562  -1.26245  -1.25301  -1.14167
 Alpha  occ. eigenvalues --   -1.05620  -1.05014  -1.04301  -0.98832  -0.92999
 Alpha  occ. eigenvalues --   -0.91890  -0.89676  -0.87582  -0.86880  -0.83972
 Alpha  occ. eigenvalues --   -0.81051  -0.78055  -0.75124  -0.73527  -0.71428
 Alpha  occ. eigenvalues --   -0.68610  -0.67991  -0.66088  -0.64582  -0.62632
 Alpha  occ. eigenvalues --   -0.62275  -0.62008  -0.59138  -0.58560  -0.57786
 Alpha  occ. eigenvalues --   -0.57084  -0.56733  -0.54510  -0.53838  -0.52270
 Alpha  occ. eigenvalues --   -0.51679  -0.50842  -0.50073  -0.49585  -0.48892
 Alpha  occ. eigenvalues --   -0.48580  -0.48193  -0.47875  -0.47329  -0.47232
 Alpha  occ. eigenvalues --   -0.46708  -0.45943  -0.45147  -0.44936  -0.44472
 Alpha  occ. eigenvalues --   -0.44157  -0.43444  -0.42343  -0.41722  -0.41082
 Alpha  occ. eigenvalues --   -0.40416  -0.40004  -0.39963  -0.39150  -0.38845
 Alpha  occ. eigenvalues --   -0.38195  -0.36934  -0.36300  -0.35446  -0.34214
 Alpha  occ. eigenvalues --   -0.33371  -0.33146  -0.31773  -0.30718  -0.30333
 Alpha  occ. eigenvalues --   -0.29657  -0.29070  -0.25663  -0.25239  -0.24126
 Alpha  occ. eigenvalues --   -0.22630
 Alpha virt. eigenvalues --   -0.06889  -0.05610  -0.03038   0.00575   0.01710
 Alpha virt. eigenvalues --    0.05083   0.07559   0.08721   0.09317   0.09538
 Alpha virt. eigenvalues --    0.09968   0.10235   0.10417   0.11580   0.11761

 Mulliken charges:
               1
     1  Cl  -0.004306
     2  F   -0.247364
     3  F   -0.253579
     4  O   -0.278964
     5  O   -0.452580
     6  O   -0.346470
     7  N   -0.303733
     8  N   -0.652514
     9  N   -0.253289
    10  C    0.416842
    11  C   -0.585533
    12  C   -0.563510
    13  C   -0.198279
    14  C   -0.442952
    15  C   -0.423800
    16  C    0.443975
    17  C   -0.171426
    18  C    0.023081
    19  C   -0.553603
    20  C   -0.491999
    21  C    0.487447
    22  C    0.263516
    23  C    0.208552
    24  C   -0.621954
    25  C   -0.274993
    26  C    0.146924
    27  C    0.104219
    28  C    0.205859
    29  H    0.231725
    30  H    0.236469
    31  H    0.240455
    32  H    0.230802
    33  H    0.235295
    34  H    0.248874
    35  H    0.220497
    36  H    0.250965
    37  H    0.240018
    38  H    0.281953
    39  H    0.302747
    40  H    0.297719
    41  H    0.256018
    42  H    0.273347
    43  H    0.267997
    44  H    0.302810
    45  H    0.292769
    46  H    0.409975
 Sum of Mulliken charges =   0.00000

 Dipole moment (field-independent basis, Debye):
    X=             -3.8341    Y=              5.1773    Z=             -1.8728  Tot=              6.7092
 Quadrupole moment (field-independent basis, Debye-Ang):
   XX=           -162.7340   YY=           -167.1317   ZZ=           -167.4868
   XY=             14.4891   XZ=              0.1780   YZ=              3.8213

 Normal termination of Gaussian 09 at Tue Jul 21 16:08:55 2020.
