 Gaussian 09, Revision D.01,
 Gaussian 09:  ES64L-G09RevD.01 24-Apr-2013

 -----------------------------------------------------
 #opt M06/lanl2dz integral=ultrafine geom=connectivity
 -----------------------------------------------------

 -------------------
 Title Card Required
 -------------------
 Symbolic Z-matrix:
 Charge =  0 Multiplicity = 1

 SCF Done:  E(RM06) =  -1148.74208430     A.U. after   17 cycles
 SCF Done:  E(RM06) =  -1148.74370137     A.U. after   14 cycles
 SCF Done:  E(RM06) =  -1148.74452464     A.U. after   14 cycles
 SCF Done:  E(RM06) =  -1148.74474923     A.U. after   12 cycles
 SCF Done:  E(RM06) =  -1148.74476254     A.U. after   10 cycles
 SCF Done:  E(RM06) =  -1148.74475741     A.U. after   11 cycles
 SCF Done:  E(RM06) =  -1148.74476646     A.U. after    9 cycles
 SCF Done:  E(RM06) =  -1148.74476679     A.U. after    9 cycles
 SCF Done:  E(RM06) =  -1148.74476741     A.U. after    9 cycles
 SCF Done:  E(RM06) =  -1148.74476757     A.U. after    8 cycles
 SCF Done:  E(RM06) =  -1148.74476764     A.U. after    9 cycles
 SCF Done:  E(RM06) =  -1148.74476768     A.U. after    8 cycles
 Optimization completed.
    -- Stationary point found.

                         Standard orientation:
 ---------------------------------------------------------------------
 Center     Atomic      Atomic             Coordinates (Angstroms)
 Number     Number       Type             X           Y           Z
 ---------------------------------------------------------------------
      1          9           0        1.650945   -2.740721    0.357803
      2          8           0       -3.328458   -2.428884    0.298045
      3          8           0       -5.868616   -1.319337    0.214777
      4          8           0       -6.021734    0.917332   -0.155918
      5          7           0        2.670312   -0.154842   -0.130703
      6          7           0        5.478332    0.346761   -0.187339
      7          7           0       -1.963888    1.439217   -0.349172
      8          6           0        3.578562   -1.021857   -0.908288
      9          6           0        3.179804    1.210222    0.024208
     10          6           0        4.966001   -1.026438   -0.281957
     11          6           0        4.583785    1.175261    0.625383
     12          6           0        1.299949   -0.392029   -0.111735
     13          6           0       -1.027849    0.395657   -0.190939
     14          6           0        0.356036    0.640947   -0.265604
     15          6           0        6.860299    0.393886    0.288800
     16          6           0        0.767819   -1.690161    0.119823
     17          6           0       -1.514346   -0.913045    0.021486
     18          6           0       -0.579068   -1.952833    0.174399
     19          6           0       -1.531275    2.841043   -0.521265
     20          6           0       -2.959088   -1.246068    0.108309
     21          6           0       -3.293078    1.167299   -0.266109
     22          6           0       -3.837410   -0.081483   -0.049823
     23          6           0       -1.126069    3.481536    0.807754
     24          6           0       -5.308890   -0.096473   -0.007144
     25          1           0        3.180736   -2.035766   -0.948294
     26          1           0        3.657074   -0.629099   -1.936606
     27          1           0        3.216763    1.733963   -0.948620
     28          1           0        2.521452    1.767851    0.700712
     29          1           0        4.911549   -1.506219    0.718823
     30          1           0        5.646797   -1.615018   -0.908248
     31          1           0        4.984200    2.195790    0.667366
     32          1           0        4.515587    0.788234    1.665861
     33          1           0        0.719757    1.640120   -0.476132
     34          1           0        7.220963    1.428512    0.284481
     35          1           0        7.501994   -0.193128   -0.377197
     36          1           0        6.969794   -0.007669    1.317725
     37          1           0       -0.949307   -2.956273    0.365993
     38          1           0       -0.715229    2.875199   -1.250915
     39          1           0       -2.369379    3.388261   -0.964145
     40          1           0       -3.973741    2.008446   -0.382790
     41          1           0       -1.971826    3.479685    1.503630
     42          1           0       -0.300379    2.937152    1.279505
     43          1           0       -0.811620    4.518315    0.651518
     44          1           0       -6.847618   -1.235487    0.228596
 ---------------------------------------------------------------------

 The electronic state is 1-A.
 Alpha  occ. eigenvalues --  -24.80055 -19.25842 -19.21137 -19.18496 -14.48546
 Alpha  occ. eigenvalues --  -14.43302 -14.40087 -10.40060 -10.35138 -10.34002
 Alpha  occ. eigenvalues --  -10.33442 -10.33428 -10.33332 -10.32608 -10.29974
 Alpha  occ. eigenvalues --  -10.28897 -10.28759 -10.28142 -10.27877 -10.27538
 Alpha  occ. eigenvalues --  -10.27454 -10.27381 -10.27293 -10.26795  -1.25236
 Alpha  occ. eigenvalues --   -1.13203  -1.04143  -1.03924  -1.02868  -0.99075
 Alpha  occ. eigenvalues --   -0.94467  -0.88928  -0.84764  -0.80771  -0.79755
 Alpha  occ. eigenvalues --   -0.79594  -0.78009  -0.74532  -0.70162  -0.69252
 Alpha  occ. eigenvalues --   -0.68398  -0.67039  -0.65505  -0.63708  -0.62148
 Alpha  occ. eigenvalues --   -0.59814  -0.57191  -0.56620  -0.56025  -0.53600
 Alpha  occ. eigenvalues --   -0.52055  -0.50432  -0.49771  -0.49507  -0.49068
 Alpha  occ. eigenvalues --   -0.48802  -0.48636  -0.47945  -0.47692  -0.47056
 Alpha  occ. eigenvalues --   -0.46703  -0.46108  -0.45776  -0.45606  -0.43679
 Alpha  occ. eigenvalues --   -0.43085  -0.42705  -0.42307  -0.41540  -0.40679
 Alpha  occ. eigenvalues --   -0.40182  -0.39655  -0.39502  -0.38928  -0.38075
 Alpha  occ. eigenvalues --   -0.37997  -0.37765  -0.37385  -0.36583  -0.35679
 Alpha  occ. eigenvalues --   -0.32501  -0.31177  -0.28828  -0.28761  -0.24375
 Alpha  occ. eigenvalues --   -0.24304  -0.23080  -0.22540
 Alpha virt. eigenvalues --   -0.05573  -0.04361  -0.00068   0.02817   0.07585
 Alpha virt. eigenvalues --    0.08822   0.09619   0.10206   0.10319   0.10936
 Alpha virt. eigenvalues --    0.11586   0.12250   0.12460   0.13012   0.13970

 Mulliken charges:
               1
     1  F   -0.262138
     2  O   -0.289707
     3  O   -0.451849
     4  O   -0.358287
     5  N   -0.226986
     6  N   -0.111214
     7  N   -0.220178
     8  C   -0.371273
     9  C   -0.364327
    10  C   -0.347554
    11  C   -0.356583
    12  C    0.320549
    13  C    0.398238
    14  C   -0.467939
    15  C   -0.584193
    16  C    0.234225
    17  C    0.197032
    18  C   -0.582549
    19  C   -0.352523
    20  C    0.151257
    21  C   -0.289594
    22  C    0.094343
    23  C   -0.628516
    24  C    0.203831
    25  H    0.248330
    26  H    0.215998
    27  H    0.211290
    28  H    0.205649
    29  H    0.197082
    30  H    0.210877
    31  H    0.210777
    32  H    0.186422
    33  H    0.243233
    34  H    0.216855
    35  H    0.219998
    36  H    0.187237
    37  H    0.298048
    38  H    0.225914
    39  H    0.228123
    40  H    0.273854
    41  H    0.230295
    42  H    0.226614
    43  H    0.222925
    44  H    0.406413
 Sum of Mulliken charges =   0.00000

 Dipole moment (field-independent basis, Debye):
    X=              6.3230    Y=              6.7187    Z=             -0.6015  Tot=              9.2457
 Quadrupole moment (field-independent basis, Debye-Ang):
   XX=           -144.7296   YY=           -139.6302   ZZ=           -140.8004
   XY=             -5.9949   XZ=              2.5034   YZ=              3.3427

 Normal termination of Gaussian 09 at Tue Jul 21 14:10:38 2020.
