 Gaussian 09, Revision D.01,
 Gaussian 09:  ES64L-G09RevD.01 24-Apr-2013

 -----------------------------------------------------
 #opt M06/lanl2dz integral=ultrafine geom=connectivity
 -----------------------------------------------------

 -------------------
 Title Card Required
 -------------------
 Symbolic Z-matrix:
 Charge =  0 Multiplicity = 1

 SCF Done:  E(RM06) =  -1042.34476879     A.U. after   17 cycles
 SCF Done:  E(RM06) =  -1042.34666125     A.U. after   13 cycles
 SCF Done:  E(RM06) =  -1042.34693781     A.U. after   12 cycles
 SCF Done:  E(RM06) =  -1042.34697002     A.U. after   12 cycles
 SCF Done:  E(RM06) =  -1042.34699598     A.U. after   12 cycles
 SCF Done:  E(RM06) =  -1042.34700916     A.U. after   10 cycles
 SCF Done:  E(RM06) =  -1042.34701039     A.U. after    9 cycles
 SCF Done:  E(RM06) =  -1042.34701038     A.U. after    8 cycles
 SCF Done:  E(RM06) =  -1042.34701141     A.U. after    8 cycles
 SCF Done:  E(RM06) =  -1042.34701249     A.U. after   11 cycles
 SCF Done:  E(RM06) =  -1042.34701334     A.U. after   13 cycles
 SCF Done:  E(RM06) =  -1042.34703244     A.U. after   10 cycles
 SCF Done:  E(RM06) =  -1042.34703279     A.U. after   12 cycles
 SCF Done:  E(RM06) =  -1042.34655612     A.U. after   14 cycles
 SCF Done:  E(RM06) =  -1042.34697482     A.U. after   15 cycles
 SCF Done:  E(RM06) =  -1042.34703354     A.U. after   14 cycles
 SCF Done:  E(RM06) =  -1042.34703358     A.U. after    7 cycles
 SCF Done:  E(RM06) =  -1042.34703357     A.U. after    8 cycles
 SCF Done:  E(RM06) =  -1042.34703359     A.U. after    8 cycles
 SCF Done:  E(RM06) =  -1042.34703359     A.U. after    8 cycles
 Optimization completed.
    -- Stationary point found.

                         Standard orientation:
 ---------------------------------------------------------------------
 Center     Atomic      Atomic             Coordinates (Angstroms)
 Number     Number       Type             X           Y           Z
 ---------------------------------------------------------------------
      1          8           0       -2.847942   -2.494755    0.255325
      2          8           0       -5.322170   -1.249939    0.421544
      3          8           0       -5.389297    1.005667    0.149757
      4          7           0        3.015525   -0.380377   -0.618933
      5          7           0        5.387100    0.186218    0.739256
      6          7           0       -1.333799    1.325513   -0.383365
      7          7           0        0.847176    0.474934   -0.497627
      8          7           0        1.270112   -1.896040   -0.249748
      9          6           0        3.589265    0.968179   -0.706383
     10          6           0        4.014602   -1.445203   -0.447380
     11          6           0        4.389211    1.243283    0.572526
     12          6           0        4.817023   -1.160428    0.827048
     13          6           0        1.683947   -0.596657   -0.450638
     14          6           0       -0.464216    0.234546   -0.336193
     15          6           0       -0.996151   -1.053708   -0.121036
     16          6           0       -0.801792    2.694492   -0.567071
     17          6           0       -0.040268   -2.092287   -0.093851
     18          6           0       -2.668612    1.120128   -0.190565
     19          6           0       -2.433266   -1.326535    0.073340
     20          6           0       -3.259369   -0.105291    0.028691
     21          6           0       -0.328459    3.289436    0.758041
     22          6           0       -4.722477   -0.046935    0.198639
     23          1           0        2.782915    1.691657   -0.838107
     24          1           0        4.266276    1.003000   -1.569626
     25          1           0        4.689299   -1.429618   -1.312981
     26          1           0        3.499108   -2.404724   -0.393096
     27          1           0        4.894486    2.211471    0.492777
     28          1           0        3.672087    1.294240    1.418908
     29          1           0        4.135437   -1.279520    1.693928
     30          1           0        5.626098   -1.891339    0.924804
     31          1           0        6.107742    0.387210    1.424887
     32          1           0        0.026509    2.634499   -1.277615
     33          1           0       -1.601077    3.296965   -1.011669
     34          1           0       -0.386405   -3.110307    0.066310
     35          1           0       -3.304076    2.003268   -0.219094
     36          1           0       -1.144671    3.316900    1.488986
     37          1           0        0.490873    2.690113    1.169236
     38          1           0        0.032645    4.312002    0.608250
     39          1           0       -6.291397   -1.123448    0.523011
 ---------------------------------------------------------------------

 The electronic state is 1-A.
 Alpha  occ. eigenvalues --  -19.26255 -19.21592 -19.19038 -14.48531 -14.44198
 Alpha  occ. eigenvalues --  -14.41952 -14.41612 -14.39309 -10.40515 -10.38404
 Alpha  occ. eigenvalues --  -10.37054 -10.34739 -10.33998 -10.31799 -10.31456
 Alpha  occ. eigenvalues --  -10.29109 -10.28828 -10.28604 -10.28470 -10.28047
 Alpha  occ. eigenvalues --  -10.27437 -10.25740  -1.13643  -1.05902  -1.04494
 Alpha  occ. eigenvalues --   -1.04198  -1.02645  -0.97350  -0.92662  -0.92160
 Alpha  occ. eigenvalues --   -0.85041  -0.82288  -0.79441  -0.78696  -0.74521
 Alpha  occ. eigenvalues --   -0.72369  -0.69238  -0.67372  -0.66922  -0.64779
 Alpha  occ. eigenvalues --   -0.63054  -0.61859  -0.57491  -0.57110  -0.55428
 Alpha  occ. eigenvalues --   -0.54195  -0.51620  -0.50551  -0.50137  -0.49497
 Alpha  occ. eigenvalues --   -0.48623  -0.48147  -0.47986  -0.47124  -0.46624
 Alpha  occ. eigenvalues --   -0.46290  -0.45841  -0.44953  -0.44349  -0.43234
 Alpha  occ. eigenvalues --   -0.41658  -0.41139  -0.40458  -0.40203  -0.39210
 Alpha  occ. eigenvalues --   -0.38673  -0.38158  -0.37861  -0.37678  -0.37188
 Alpha  occ. eigenvalues --   -0.33896  -0.33517  -0.33178  -0.32330  -0.29188
 Alpha  occ. eigenvalues --   -0.26561  -0.25686  -0.24731  -0.24642  -0.22794
 Alpha virt. eigenvalues --   -0.06917  -0.04482  -0.01455   0.02275   0.09062
 Alpha virt. eigenvalues --    0.09409   0.09893   0.10598   0.10933   0.11649
 Alpha virt. eigenvalues --    0.12801   0.13382   0.13622   0.14896   0.15015

 Mulliken charges:
               1
     1  O   -0.285431
     2  O   -0.451891
     3  O   -0.353331
     4  N   -0.176054
     5  N   -0.378188
     6  N   -0.195800
     7  N   -0.148755
     8  N   -0.117435
     9  C   -0.339681
    10  C   -0.339950
    11  C   -0.358795
    12  C   -0.364840
    13  C    0.095497
    14  C    0.148372
    15  C    0.163876
    16  C   -0.309147
    17  C   -0.340046
    18  C   -0.265468
    19  C    0.170546
    20  C    0.101495
    21  C   -0.638171
    22  C    0.206909
    23  H    0.242195
    24  H    0.229584
    25  H    0.225239
    26  H    0.268659
    27  H    0.213581
    28  H    0.184312
    29  H    0.192568
    30  H    0.216153
    31  H    0.300326
    32  H    0.247409
    33  H    0.214170
    34  H    0.274970
    35  H    0.283781
    36  H    0.217977
    37  H    0.237925
    38  H    0.219308
    39  H    0.408132
 Sum of Mulliken charges =   0.00000

 Dipole moment (field-independent basis, Debye):
    X=              5.8962    Y=              5.0864    Z=              0.4482  Tot=              7.7999
 Quadrupole moment (field-independent basis, Debye-Ang):
   XX=           -126.8258   YY=           -129.1116   ZZ=           -125.3572
   XY=             -3.3992   XZ=              6.7923   YZ=             -0.3158

 Normal termination of Gaussian 09 at Tue Jul 21 06:55:26 2020.
