 Gaussian 09, Revision D.01,
 Gaussian 09:  ES64L-G09RevD.01 24-Apr-2013

 -----------------------------------
 # opt b3lyp/3-21g geom=connectivity
 -----------------------------------

 -------------------
 Title Card Required
 -------------------
 Symbolic Z-matrix:
 Charge =  0 Multiplicity = 1

 SCF Done:  E(RB3LYP) =  -927.740336956     A.U. after   17 cycles
 SCF Done:  E(RB3LYP) =  -927.744106478     A.U. after   14 cycles
 SCF Done:  E(RB3LYP) =  -927.744501876     A.U. after   12 cycles
 SCF Done:  E(RB3LYP) =  -927.744319010     A.U. after   13 cycles
 SCF Done:  E(RB3LYP) =  -927.744550839     A.U. after   12 cycles
 SCF Done:  E(RB3LYP) =  -927.744553216     A.U. after    9 cycles
 SCF Done:  E(RB3LYP) =  -927.744554593     A.U. after    9 cycles
 SCF Done:  E(RB3LYP) =  -927.744556052     A.U. after    9 cycles
 SCF Done:  E(RB3LYP) =  -927.744556204     A.U. after    8 cycles
 SCF Done:  E(RB3LYP) =  -927.744556400     A.U. after    8 cycles
 SCF Done:  E(RB3LYP) =  -927.744556494     A.U. after    7 cycles
 Optimization completed.
    -- Stationary point found.

                         Standard orientation:
 ---------------------------------------------------------------------
 Center     Atomic      Atomic             Coordinates (Angstroms)
 Number     Number       Type             X           Y           Z
 ---------------------------------------------------------------------
      1          8           0        4.076224    0.564188   -0.165914
      2          8           0        3.728312   -1.770958    0.138282
      3          8           0       -1.346009   -2.568778    0.238764
      4          8           0       -4.005550   -1.997940    0.126865
      5          8           0       -4.624144    0.178194   -0.170887
      6          7           0       -0.763242    1.499518   -0.295166
      7          6           0        0.355808    0.654961   -0.177361
      8          6           0        0.142402   -0.727689    0.001654
      9          6           0        1.675356    1.166644   -0.242949
     10          6           0       -0.614764    2.976868   -0.416862
     11          6           0        2.712394    0.275005   -0.129282
     12          6           0        2.499773   -1.098015    0.049154
     13          6           0        1.235432   -1.612406    0.116266
     14          6           0       -2.010687    0.965981   -0.236224
     15          6           0       -1.216139   -1.339659    0.075286
     16          6           0       -2.290275   -0.361735   -0.065936
     17          6           0        4.771041   -0.738852   -0.005132
     18          6           0       -0.345216    3.643952    0.945005
     19          6           0       -3.727956   -0.666706   -0.046318
     20          1           0        1.883285    2.216070   -0.375828
     21          1           0        0.184285    3.188320   -1.131872
     22          1           0       -1.548620    3.350967   -0.843663
     23          1           0        1.021038   -2.663001    0.251535
     24          1           0       -2.845320    1.650023   -0.336940
     25          1           0        5.379320   -0.705928    0.899748
     26          1           0        5.361326   -0.937417   -0.900911
     27          1           0       -1.178038    3.450931    1.627556
     28          1           0        0.570956    3.254293    1.396780
     29          1           0       -0.240975    4.726107    0.813482
     30          1           0       -4.998238   -2.094727    0.125591
 ---------------------------------------------------------------------

 The electronic state is 1-A.
 Alpha  occ. eigenvalues --  -19.10409 -19.09734 -19.06680 -19.01352 -18.99515
 Alpha  occ. eigenvalues --  -14.34234 -10.26279 -10.24978 -10.21536 -10.20525
 Alpha  occ. eigenvalues --  -10.20289 -10.19807 -10.19752 -10.19628 -10.15638
 Alpha  occ. eigenvalues --  -10.14759 -10.14225 -10.14143 -10.13862  -1.13117
 Alpha  occ. eigenvalues --   -1.08951  -1.04359  -1.01707  -1.00856  -1.00018
 Alpha  occ. eigenvalues --   -0.88427  -0.83085  -0.79495  -0.77908  -0.76829
 Alpha  occ. eigenvalues --   -0.71201  -0.68427  -0.66955  -0.65083  -0.61567
 Alpha  occ. eigenvalues --   -0.61344  -0.57770  -0.55377  -0.53371  -0.52801
 Alpha  occ. eigenvalues --   -0.51238  -0.48957  -0.48431  -0.47950  -0.47237
 Alpha  occ. eigenvalues --   -0.45818  -0.45264  -0.44504  -0.43873  -0.43130
 Alpha  occ. eigenvalues --   -0.42105  -0.41188  -0.40411  -0.38898  -0.38582
 Alpha  occ. eigenvalues --   -0.38332  -0.37406  -0.36604  -0.36436  -0.35707
 Alpha  occ. eigenvalues --   -0.35618  -0.31861  -0.28704  -0.26091  -0.25863
 Alpha  occ. eigenvalues --   -0.23940  -0.22263  -0.20851
 Alpha virt. eigenvalues --   -0.04241  -0.03182   0.00979   0.04397   0.07249
 Alpha virt. eigenvalues --    0.08506   0.09326   0.10998   0.11645   0.11799
 Alpha virt. eigenvalues --    0.12636   0.13022   0.13885   0.15507   0.16247

 Mulliken charges:
               1
     1  O   -0.540628
     2  O   -0.538843
     3  O   -0.499018
     4  O   -0.540082
     5  O   -0.519388
     6  N   -0.822467
     7  C    0.362547
     8  C   -0.073788
     9  C   -0.217901
    10  C   -0.222936
    11  C    0.297140
    12  C    0.296133
    13  C   -0.186984
    14  C    0.213240
    15  C    0.408531
    16  C   -0.208188
    17  C    0.075465
    18  C   -0.562920
    19  C    0.664101
    20  H    0.210343
    21  H    0.225726
    22  H    0.229195
    23  H    0.239537
    24  H    0.256432
    25  H    0.230227
    26  H    0.230126
    27  H    0.215021
    28  H    0.217767
    29  H    0.202117
    30  H    0.359496
 Sum of Mulliken charges =   0.00000

 Dipole moment (field-independent basis, Debye):
    X=              3.5783    Y=              5.2578    Z=             -0.3871  Tot=              6.3717
 Quadrupole moment (field-independent basis, Debye-Ang):
   XX=            -97.5535   YY=           -105.6507   ZZ=           -108.6861
   XY=             -2.4127   XZ=             -0.3113   YZ=              0.1958

 Normal termination of Gaussian 09 at Mon Jul  6 19:07:36 2020.
