 Gaussian 09, Revision D.01,
 Gaussian 09:  ES64L-G09RevD.01 24-Apr-2013

 -----------------------------------
 # opt b3lyp/3-21g geom=connectivity
 -----------------------------------

 -------------------
 Title Card Required
 -------------------
 Symbolic Z-matrix:
 Charge =  0 Multiplicity = 1

 SCF Done:  E(RB3LYP) =  -1143.32753277     A.U. after   16 cycles
 SCF Done:  E(RB3LYP) =  -1143.33041398     A.U. after   14 cycles
 SCF Done:  E(RB3LYP) =  -1143.33065347     A.U. after   13 cycles
 SCF Done:  E(RB3LYP) =  -1143.33192223     A.U. after   13 cycles
 SCF Done:  E(RB3LYP) =  -1143.33210412     A.U. after   12 cycles
 SCF Done:  E(RB3LYP) =  -1143.33196212     A.U. after   13 cycles
 SCF Done:  E(RB3LYP) =  -1143.33221613     A.U. after   12 cycles
 SCF Done:  E(RB3LYP) =  -1143.33222382     A.U. after   12 cycles
 SCF Done:  E(RB3LYP) =  -1143.33223364     A.U. after   12 cycles
 SCF Done:  E(RB3LYP) =  -1143.33224098     A.U. after    9 cycles
 SCF Done:  E(RB3LYP) =  -1143.33224206     A.U. after    8 cycles
 SCF Done:  E(RB3LYP) =  -1143.33224228     A.U. after    8 cycles
 Optimization completed.
    -- Stationary point found.

                         Standard orientation:
 ---------------------------------------------------------------------
 Center     Atomic      Atomic             Coordinates (Angstroms)
 Number     Number       Type             X           Y           Z
 ---------------------------------------------------------------------
      1          9           0       -1.631611   -2.750098   -0.337226
      2          8           0        3.316374   -2.418670   -0.318396
      3          8           0        5.822163   -1.354509   -0.161856
      4          8           0        6.014788    0.889000    0.207212
      5          7           0       -2.661449   -0.163413    0.093141
      6          7           0       -5.480267    0.337895    0.230965
      7          7           0        1.969896    1.450521    0.325620
      8          6           0       -3.563734   -1.073034    0.854504
      9          6           0       -3.180240    1.215113    0.013019
     10          6           0       -4.965113   -1.051036    0.235168
     11          6           0       -4.596802    1.196383   -0.586761
     12          6           0       -1.287072   -0.394134    0.074252
     13          6           0        1.032156    0.411889    0.164025
     14          6           0       -0.351657    0.639488    0.234956
     15          6           0       -6.888499    0.411012   -0.209530
     16          6           0       -0.759912   -1.693849   -0.152764
     17          6           0        1.513218   -0.892514   -0.048449
     18          6           0        0.586008   -1.930328   -0.197784
     19          6           0        1.546728    2.866996    0.498060
     20          6           0        2.955888   -1.240984   -0.123642
     21          6           0        3.297229    1.162562    0.266527
     22          6           0        3.826406   -0.080638    0.057803
     23          6           0        1.155882    3.520351   -0.840905
     24          6           0        5.295374   -0.105823    0.046909
     25          1           0       -3.153832   -2.077157    0.816173
     26          1           0       -3.636028   -0.731380    1.897207
     27          1           0       -3.221487    1.687491    1.007011
     28          1           0       -2.530247    1.800786   -0.642628
     29          1           0       -4.914080   -1.474416   -0.784678
     30          1           0       -5.635982   -1.668382    0.842037
     31          1           0       -4.999096    2.215384   -0.582792
     32          1           0       -4.531504    0.843662   -1.633005
     33          1           0       -0.716893    1.631668    0.444623
     34          1           0       -7.231550    1.448484   -0.139539
     35          1           0       -7.501888   -0.203747    0.456989
     36          1           0       -7.040849    0.060558   -1.247860
     37          1           0        0.971870   -2.925833   -0.374060
     38          1           0        0.722769    2.900334    1.215467
     39          1           0        2.393611    3.395156    0.943411
     40          1           0        3.986307    1.988626    0.400296
     41          1           0        2.011322    3.517608   -1.522839
     42          1           0        0.334277    2.976089   -1.314481
     43          1           0        0.843692    4.556395   -0.671918
     44          1           0        6.815067   -1.260748   -0.150455
 ---------------------------------------------------------------------

 The electronic state is 1-A.
 Alpha  occ. eigenvalues --  -24.57473 -19.06472 -19.01138 -18.99182 -14.33864
 Alpha  occ. eigenvalues --  -14.28480 -14.25194 -10.24760 -10.21359 -10.19656
 Alpha  occ. eigenvalues --  -10.19618 -10.19427 -10.19419 -10.19376 -10.16976
 Alpha  occ. eigenvalues --  -10.15849 -10.15840 -10.15295 -10.14727 -10.14488
 Alpha  occ. eigenvalues --  -10.14107 -10.13916 -10.13587 -10.13556  -1.20765
 Alpha  occ. eigenvalues --   -1.08734  -1.01349  -1.00522  -0.99774  -0.96793
 Alpha  occ. eigenvalues --   -0.92336  -0.87025  -0.82801  -0.78891  -0.78055
 Alpha  occ. eigenvalues --   -0.77787  -0.76082  -0.72891  -0.68147  -0.67579
 Alpha  occ. eigenvalues --   -0.66774  -0.65443  -0.63798  -0.61003  -0.60513
 Alpha  occ. eigenvalues --   -0.58288  -0.55659  -0.54378  -0.54015  -0.51794
 Alpha  occ. eigenvalues --   -0.50292  -0.48340  -0.48138  -0.47869  -0.47704
 Alpha  occ. eigenvalues --   -0.47202  -0.46573  -0.45943  -0.45514  -0.44757
 Alpha  occ. eigenvalues --   -0.44445  -0.44397  -0.43954  -0.42971  -0.41802
 Alpha  occ. eigenvalues --   -0.41452  -0.41049  -0.40154  -0.39801  -0.39389
 Alpha  occ. eigenvalues --   -0.38514  -0.38238  -0.37696  -0.36670  -0.36419
 Alpha  occ. eigenvalues --   -0.35758  -0.35683  -0.35396  -0.34735  -0.33767
 Alpha  occ. eigenvalues --   -0.29415  -0.28424  -0.26341  -0.25658  -0.21976
 Alpha  occ. eigenvalues --   -0.21928  -0.21291  -0.20296
 Alpha virt. eigenvalues --   -0.04030  -0.02864   0.01362   0.04471   0.07947
 Alpha virt. eigenvalues --    0.08954   0.09434   0.11017   0.11399   0.12452
 Alpha virt. eigenvalues --    0.12841   0.13168   0.13644   0.14392   0.14666

 Mulliken charges:
               1
     1  F   -0.285699
     2  O   -0.499567
     3  O   -0.540011
     4  O   -0.520446
     5  N   -0.670348
     6  N   -0.496358
     7  N   -0.827585
     8  C   -0.230333
     9  C   -0.193460
    10  C   -0.202228
    11  C   -0.195545
    12  C    0.312820
    13  C    0.365322
    14  C   -0.219128
    15  C   -0.386853
    16  C    0.284501
    17  C   -0.073793
    18  C   -0.196545
    19  C   -0.221527
    20  C    0.404460
    21  C    0.211999
    22  C   -0.206241
    23  C   -0.562261
    24  C    0.661915
    25  H    0.233096
    26  H    0.201891
    27  H    0.196913
    28  H    0.205127
    29  H    0.180938
    30  H    0.200221
    31  H    0.197135
    32  H    0.178973
    33  H    0.195706
    34  H    0.196137
    35  H    0.198768
    36  H    0.166261
    37  H    0.240991
    38  H    0.223760
    39  H    0.228097
    40  H    0.254892
    41  H    0.215526
    42  H    0.214009
    43  H    0.199658
    44  H    0.358808
 Sum of Mulliken charges =   0.00000

 Dipole moment (field-independent basis, Debye):
    X=             -5.3556    Y=              5.6509    Z=              0.4921  Tot=              7.8011
 Quadrupole moment (field-independent basis, Debye-Ang):
   XX=           -139.1287   YY=           -136.3185   ZZ=           -142.1009
   XY=              5.5313   XZ=              1.9315   YZ=             -2.4066

 Normal termination of Gaussian 09 at Mon Jul  6 11:36:58 2020.
