 Gaussian 09, Revision D.01,
 Gaussian 09:  ES64L-G09RevD.01 24-Apr-2013

 -----------------------------------
 # opt b3lyp/3-21g geom=connectivity
 -----------------------------------

 -------------------
 Title Card Required
 -------------------
 Symbolic Z-matrix:
 Charge =  0 Multiplicity = 1

 SCF Done:  E(RB3LYP) =  -1142.07342475     A.U. after   17 cycles
 SCF Done:  E(RB3LYP) =  -1142.07811018     A.U. after   14 cycles
 SCF Done:  E(RB3LYP) =  -1142.07859581     A.U. after   13 cycles
 SCF Done:  E(RB3LYP) =  -1142.07804029     A.U. after   13 cycles
 SCF Done:  E(RB3LYP) =  -1142.07884544     A.U. after   11 cycles
 SCF Done:  E(RB3LYP) =  -1142.07904734     A.U. after   13 cycles
 SCF Done:  E(RB3LYP) =  -1142.07942499     A.U. after   15 cycles
 SCF Done:  E(RB3LYP) =  -1142.07839533     A.U. after   16 cycles
 SCF Done:  E(RB3LYP) =  -1142.07964786     A.U. after   12 cycles
 SCF Done:  E(RB3LYP) =  -1142.08015236     A.U. after   13 cycles
 SCF Done:  E(RB3LYP) =  -1142.08108599     A.U. after   13 cycles
 SCF Done:  E(RB3LYP) =  -1142.08115244     A.U. after   12 cycles
 SCF Done:  E(RB3LYP) =  -1142.01231717     A.U. after   17 cycles
 SCF Done:  E(RB3LYP) =  -1142.07847719     A.U. after   13 cycles
 SCF Done:  E(RB3LYP) =  -1142.08123402     A.U. after   12 cycles
 SCF Done:  E(RB3LYP) =  -1142.08124982     A.U. after   12 cycles
 SCF Done:  E(RB3LYP) =  -1142.08126107     A.U. after   12 cycles
 SCF Done:  E(RB3LYP) =  -1142.08126795     A.U. after   11 cycles
 SCF Done:  E(RB3LYP) =  -1142.08126997     A.U. after    9 cycles
 SCF Done:  E(RB3LYP) =  -1142.08127016     A.U. after    8 cycles
 Optimization completed.
    -- Stationary point found.

                         Standard orientation:
 ---------------------------------------------------------------------
 Center     Atomic      Atomic             Coordinates (Angstroms)
 Number     Number       Type             X           Y           Z
 ---------------------------------------------------------------------
      1          6           0       -1.399432    2.656873   -0.609217
      2          6           0       -0.700995    3.480398    0.467089
      3          6           0       -2.174658    3.711560    0.163601
      4          1           0       -2.458557    4.605677   -0.377017
      5          1           0       -2.885851    3.372026    0.905754
      6          1           0       -0.467473    2.965363    1.390141
      7          1           0        0.017505    4.223795    0.143261
      8          1           0       -1.154367    2.871988   -1.644194
      9          7           0        3.072900    0.159978   -0.620299
     10          6           0        3.591574    1.422364   -0.046156
     11          6           0        4.484467    1.091563    1.169357
     12          7           0        5.576567    0.202396    0.712116
     13          6           0        4.166117   -0.753036   -1.035743
     14          6           0        5.060732   -1.080557    0.172113
     15          1           0        6.274226    0.052395    1.446220
     16          1           0        2.761225    2.059677    0.260667
     17          1           0        4.199064    1.938112   -0.798170
     18          1           0        4.768421   -0.224981   -1.783708
     19          1           0        3.746255   -1.657014   -1.466023
     20          1           0        5.909480   -1.694017   -0.147194
     21          1           0        4.444342   -1.653865    0.883809
     22          1           0        4.922427    2.014295    1.565120
     23          1           0        3.843034    0.637028    1.946811
     24          8           0       -2.564076   -2.743318    0.340028
     25          8           0       -5.167597   -1.947653    0.384247
     26          8           0       -5.622290    0.266322    0.073570
     27          7           0       -1.677586    1.251533   -0.340492
     28          6           0        0.703744    0.685535   -0.488729
     29          6           0       -0.628507    0.308972   -0.289900
     30          6           0       -0.953846   -1.041144   -0.061122
     31          6           0       -2.962605    0.825138   -0.199210
     32          6           0       -3.339066   -0.468348    0.031262
     33          6           0       -2.340963   -1.534839    0.128876
     34          6           0        0.088371   -1.972009   -0.004802
     35          6           0        1.758888   -0.241703   -0.429772
     36          6           0        1.392669   -1.588028   -0.166960
     37          6           0       -4.792054   -0.648195    0.157822
     38          1           0       -3.738121    1.576433   -0.274462
     39          1           0       -0.167672   -3.003621    0.198644
     40          1           0       -6.162594   -1.958046    0.452725
     41          9           0        2.390869   -2.540777   -0.042068
     42          1           0        0.932734    1.714319   -0.716850
 ---------------------------------------------------------------------

 The electronic state is 1-A.
 Alpha  occ. eigenvalues --  -24.57401 -19.06392 -19.01049 -18.99121 -14.33907
 Alpha  occ. eigenvalues --  -14.28210 -14.23927 -10.24674 -10.21132 -10.20228
 Alpha  occ. eigenvalues --  -10.19359 -10.19301 -10.19267 -10.19217 -10.16754
 Alpha  occ. eigenvalues --  -10.15962 -10.15778 -10.15691 -10.15626 -10.14779
 Alpha  occ. eigenvalues --  -10.13942 -10.13686 -10.13497 -10.13460  -1.20573
 Alpha  occ. eigenvalues --   -1.08656  -1.01498  -1.00604  -0.99734  -0.96389
 Alpha  occ. eigenvalues --   -0.90248  -0.89353  -0.86281  -0.81054  -0.77707
 Alpha  occ. eigenvalues --   -0.77579  -0.76386  -0.70517  -0.68180  -0.66533
 Alpha  occ. eigenvalues --   -0.64974  -0.64397  -0.63305  -0.60895  -0.59810
 Alpha  occ. eigenvalues --   -0.59010  -0.56092  -0.55293  -0.53810  -0.52954
 Alpha  occ. eigenvalues --   -0.51893  -0.50353  -0.48165  -0.47887  -0.47161
 Alpha  occ. eigenvalues --   -0.46552  -0.46203  -0.45730  -0.44903  -0.44571
 Alpha  occ. eigenvalues --   -0.44381  -0.43996  -0.43272  -0.41912  -0.41534
 Alpha  occ. eigenvalues --   -0.40867  -0.40411  -0.40138  -0.39974  -0.37827
 Alpha  occ. eigenvalues --   -0.37012  -0.36640  -0.36439  -0.35945  -0.35797
 Alpha  occ. eigenvalues --   -0.35227  -0.34217  -0.33656  -0.32639  -0.29201
 Alpha  occ. eigenvalues --   -0.28305  -0.26197  -0.25566  -0.22112  -0.21832
 Alpha  occ. eigenvalues --   -0.21413  -0.19442
 Alpha virt. eigenvalues --   -0.03981  -0.02672   0.01469   0.04613   0.08715
 Alpha virt. eigenvalues --    0.08970   0.09539   0.10227   0.10912   0.10996
 Alpha virt. eigenvalues --    0.12850   0.12927   0.13100   0.14082   0.14764

 Mulliken charges:
               1
     1  C   -0.053343
     2  C   -0.383214
     3  C   -0.400927
     4  H    0.223788
     5  H    0.234163
     6  H    0.235061
     7  H    0.213192
     8  H    0.233547
     9  N   -0.688939
    10  C   -0.202871
    11  C   -0.213604
    12  N   -0.566628
    13  C   -0.199238
    14  C   -0.229943
    15  H    0.275365
    16  H    0.201440
    17  H    0.213996
    18  H    0.211937
    19  H    0.220010
    20  H    0.196397
    21  H    0.182693
    22  H    0.195513
    23  H    0.174726
    24  O   -0.499456
    25  O   -0.540132
    26  O   -0.520626
    27  N   -0.843844
    28  C   -0.202442
    29  C    0.360941
    30  C   -0.075632
    31  C    0.213745
    32  C   -0.208680
    33  C    0.403264
    34  C   -0.198933
    35  C    0.326225
    36  C    0.276166
    37  C    0.661868
    38  H    0.261301
    39  H    0.239208
    40  H    0.358314
    41  F   -0.290256
    42  H    0.205848
 Sum of Mulliken charges =   0.00000

 Dipole moment (field-independent basis, Debye):
    X=              4.3891    Y=              5.9389    Z=              0.2355  Tot=              7.3885
 Quadrupole moment (field-independent basis, Debye-Ang):
   XX=           -137.7199   YY=           -134.9092   ZZ=           -136.8036
   XY=             -6.1668   XZ=              4.9146   YZ=              0.4652

 Normal termination of Gaussian 09 at Mon Jul  6 11:03:51 2020.
