 Gaussian 09, Revision D.01,
 Gaussian 09:  ES64L-G09RevD.01 24-Apr-2013

 -----------------------------------
 # opt b3lyp/3-21g geom=connectivity
 -----------------------------------

 -------------------
 Title Card Required
 -------------------
 Symbolic Z-matrix:
 Charge =  0 Multiplicity = 1

 SCF Done:  E(RB3LYP) =  -982.416241510     A.U. after   17 cycles
 SCF Done:  E(RB3LYP) =  -982.419460961     A.U. after   14 cycles
 SCF Done:  E(RB3LYP) =  -982.419758642     A.U. after   13 cycles
 SCF Done:  E(RB3LYP) =  -982.419296416     A.U. after   13 cycles
 SCF Done:  E(RB3LYP) =  -982.419904242     A.U. after   13 cycles
 SCF Done:  E(RB3LYP) =  -982.419898942     A.U. after   10 cycles
 SCF Done:  E(RB3LYP) =  -982.419916598     A.U. after   10 cycles
 SCF Done:  E(RB3LYP) =  -982.419918526     A.U. after    8 cycles
 SCF Done:  E(RB3LYP) =  -982.419919707     A.U. after    9 cycles
 SCF Done:  E(RB3LYP) =  -982.419920371     A.U. after    8 cycles
 SCF Done:  E(RB3LYP) =  -982.419920896     A.U. after    8 cycles
 SCF Done:  E(RB3LYP) =  -982.419921119     A.U. after    7 cycles
 SCF Done:  E(RB3LYP) =  -982.419921151     A.U. after    7 cycles
 Optimization completed.
    -- Stationary point found.

                         Standard orientation:
 ---------------------------------------------------------------------
 Center     Atomic      Atomic             Coordinates (Angstroms)
 Number     Number       Type             X           Y           Z
 ---------------------------------------------------------------------
      1          8           0       -2.635888   -2.486210    0.235682
      2          8           0       -5.087158   -1.301599    0.063005
      3          8           0       -5.177334    0.959096   -0.234074
      4          7           0        3.229337   -0.337803   -0.026348
      5          7           0       -1.104898    1.340659   -0.269453
      6          7           0        1.079785    0.514068   -0.148322
      7          7           0        1.489078   -1.858773    0.168067
      8          6           0        5.324625    0.755354    0.121236
      9          6           0        5.545027   -0.714314   -0.328352
     10          6           0        3.829655    1.006656   -0.193920
     11          6           0        4.237404   -1.420655    0.102900
     12          6           0        1.903356   -0.557095   -0.003123
     13          6           0       -0.236341    0.261630   -0.119855
     14          6           0       -0.772659   -1.025695    0.048121
     15          6           0       -0.557031    2.719506   -0.412861
     16          6           0        0.171068   -2.054163    0.186620
     17          6           0       -2.448657    1.113503   -0.239700
     18          6           0       -2.217924   -1.322320    0.082827
     19          6           0       -3.035031   -0.110453   -0.080352
     20          6           0       -0.205467    3.329515    0.954617
     21          6           0       -4.505345   -0.070498   -0.094839
     22          1           0        5.493700    0.840253    1.199863
     23          1           0        5.977570    1.460320   -0.398312
     24          1           0        5.646278   -0.756575   -1.417989
     25          1           0        6.426734   -1.168533    0.129320
     26          1           0        3.357950    1.721002    0.484456
     27          1           0        3.688394    1.358657   -1.222985
     28          1           0        3.964678   -2.267081   -0.528843
     29          1           0        4.290672   -1.765228    1.142099
     30          1           0        0.337323    2.642368   -1.031747
     31          1           0       -1.315753    3.311922   -0.930397
     32          1           0       -0.200592   -3.064714    0.317071
     33          1           0       -3.094255    1.975855   -0.358883
     34          1           0       -1.085461    3.359561    1.604450
     35          1           0        0.573011    2.726175    1.427973
     36          1           0        0.168784    4.350260    0.820841
     37          1           0       -6.075181   -1.167435    0.038658
 ---------------------------------------------------------------------

 The electronic state is 1-A.
 Alpha  occ. eigenvalues --  -19.06749 -19.01439 -18.99508 -14.33646 -14.29407
 Alpha  occ. eigenvalues --  -14.26094 -14.25468 -10.25060 -10.24167 -10.22894
 Alpha  occ. eigenvalues --  -10.19876 -10.19786 -10.18337 -10.17704 -10.17088
 Alpha  occ. eigenvalues --  -10.16672 -10.14059 -10.14051 -10.13883 -10.13722
 Alpha  occ. eigenvalues --  -10.12941  -1.09026  -1.03470  -1.01233  -1.00489
 Alpha  occ. eigenvalues --   -1.00039  -0.94809  -0.90316  -0.83131  -0.82209
 Alpha  occ. eigenvalues --   -0.78200  -0.76767  -0.75253  -0.70232  -0.68757
 Alpha  occ. eigenvalues --   -0.66657  -0.63248  -0.62200  -0.60806  -0.59915
 Alpha  occ. eigenvalues --   -0.56669  -0.55214  -0.52945  -0.51831  -0.51232
 Alpha  occ. eigenvalues --   -0.49277  -0.48024  -0.47377  -0.45732  -0.45233
 Alpha  occ. eigenvalues --   -0.44342  -0.44227  -0.43680  -0.43064  -0.42620
 Alpha  occ. eigenvalues --   -0.41616  -0.40962  -0.40679  -0.39501  -0.37837
 Alpha  occ. eigenvalues --   -0.37753  -0.37375  -0.36716  -0.36579  -0.36244
 Alpha  occ. eigenvalues --   -0.35929  -0.34773  -0.31253  -0.30988  -0.30675
 Alpha  occ. eigenvalues --   -0.28630  -0.25948  -0.24533  -0.22864  -0.22052
 Alpha  occ. eigenvalues --   -0.21587
 Alpha virt. eigenvalues --   -0.05213  -0.02831   0.00161   0.04037   0.09394
 Alpha virt. eigenvalues --    0.09576   0.11129   0.11370   0.11919   0.13161
 Alpha virt. eigenvalues --    0.13995   0.14494   0.14697   0.15810   0.16389

 Mulliken charges:
               1
     1  O   -0.496012
     2  O   -0.539497
     3  O   -0.517025
     4  N   -0.688882
     5  N   -0.792330
     6  N   -0.673341
     7  N   -0.578295
     8  C   -0.409673
     9  C   -0.409531
    10  C   -0.158943
    11  C   -0.158304
    12  C    0.831597
    13  C    0.683615
    14  C   -0.133193
    15  C   -0.213558
    16  C    0.123909
    17  C    0.210243
    18  C    0.379675
    19  C   -0.203032
    20  C   -0.559545
    21  C    0.662947
    22  H    0.208008
    23  H    0.202779
    24  H    0.207683
    25  H    0.204057
    26  H    0.219878
    27  H    0.210300
    28  H    0.232056
    29  H    0.214812
    30  H    0.244819
    31  H    0.212716
    32  H    0.245726
    33  H    0.259016
    34  H    0.203039
    35  H    0.219021
    36  H    0.195225
    37  H    0.360040
 Sum of Mulliken charges =   0.00000

 Dipole moment (field-independent basis, Debye):
    X=              5.6193    Y=              4.4396    Z=             -0.4412  Tot=              7.1750
 Quadrupole moment (field-independent basis, Debye-Ang):
   XX=           -110.2094   YY=           -123.3888   ZZ=           -121.1287
   XY=             -1.9253   XZ=             -0.3250   YZ=              0.4758

 Normal termination of Gaussian 09 at Mon Jul  6 10:56:52 2020.
