 Gaussian 09, Revision D.01,
 Gaussian 09:  ES64L-G09RevD.01 24-Apr-2013

 -----------------------------------------------------
 #opt M06/lanl2dz integral=ultrafine geom=connectivity
 -----------------------------------------------------

 -------------------
 Title Card Required
 -------------------
 Symbolic Z-matrix:
 Charge =  0 Multiplicity = 1

 SCF Done:  E(RM06) =  -751.438574372     A.U. after   17 cycles
 SCF Done:  E(RM06) =  -751.440729279     A.U. after   14 cycles
 SCF Done:  E(RM06) =  -751.440903072     A.U. after   13 cycles
 SCF Done:  E(RM06) =  -751.440913558     A.U. after   10 cycles
 SCF Done:  E(RM06) =  -751.440905645     A.U. after   11 cycles
 SCF Done:  E(RM06) =  -751.440914534     A.U. after   10 cycles
 Optimization completed.
    -- Stationary point found.

                         Standard orientation:
 ---------------------------------------------------------------------
 Center     Atomic      Atomic             Coordinates (Angstroms)
 Number     Number       Type             X           Y           Z
 ---------------------------------------------------------------------
      1          8           0        1.611853   -0.694109   -0.000058
      2          8           0        4.927211    0.529949    0.000044
      3          8           0        4.149973   -1.583108    0.000031
      4          8           0       -4.339770    1.326203    0.000022
      5          7           0        3.985797   -0.327581    0.000036
      6          7           0       -1.894633    0.030834   -0.000027
      7          7           0       -3.070611   -0.640033   -0.000018
      8          7           0       -5.388928   -0.729142    0.000097
      9          6           0        0.459608    0.075812   -0.000046
     10          6           0        0.789519    1.423322   -0.000024
     11          6           0        2.661134    0.196247   -0.000011
     12          6           0        2.210561    1.499020   -0.000049
     13          6           0       -0.785506   -0.648312   -0.000054
     14          6           0       -4.281735    0.093167    0.000005
     15          1           0        0.076958    2.232486   -0.000011
     16          1           0        2.835491    2.377533   -0.000045
     17          1           0       -0.718011   -1.742656   -0.000068
     18          1           0       -3.088420   -1.661080   -0.000034
     19          1           0       -6.290228   -0.274176    0.000145
     20          1           0       -5.352790   -1.737681    0.000152
 ---------------------------------------------------------------------

 The electronic state is 1-A.
 Alpha  occ. eigenvalues --  -19.33856 -19.27145 -19.26854 -19.21665 -14.64927
 Alpha  occ. eigenvalues --  -14.49911 -14.49438 -14.44796 -10.42863 -10.38684
 Alpha  occ. eigenvalues --  -10.36962 -10.33599 -10.31285 -10.29767  -1.25333
 Alpha  occ. eigenvalues --   -1.19550  -1.11623  -1.08047  -1.06535  -0.96280
 Alpha  occ. eigenvalues --   -0.90047  -0.87659  -0.85287  -0.76822  -0.69192
 Alpha  occ. eigenvalues --   -0.66930  -0.65334  -0.61227  -0.60301  -0.58791
 Alpha  occ. eigenvalues --   -0.56946  -0.56757  -0.54842  -0.51996  -0.51741
 Alpha  occ. eigenvalues --   -0.50902  -0.49584  -0.46530  -0.46072  -0.44549
 Alpha  occ. eigenvalues --   -0.43059  -0.42756  -0.34329  -0.33186  -0.32730
 Alpha  occ. eigenvalues --   -0.32434  -0.32186  -0.31003  -0.30736  -0.30120
 Alpha  occ. eigenvalues --   -0.26188
 Alpha virt. eigenvalues --   -0.11754  -0.06379   0.01804   0.03526   0.04616
 Alpha virt. eigenvalues --    0.06221   0.07562   0.10501   0.12120   0.12449
 Alpha virt. eigenvalues --    0.13469   0.14972   0.15684   0.17095   0.17628

 Mulliken charges:
               1
     1  O   -0.289394
     2  O   -0.258214
     3  O   -0.237626
     4  O   -0.296636
     5  N    0.111181
     6  N    0.081765
     7  N   -0.449375
     8  N   -0.726987
     9  C    0.439608
    10  C   -0.298911
    11  C    0.303860
    12  C   -0.269492
    13  C   -0.338368
    14  C    0.429535
    15  H    0.281535
    16  H    0.277402
    17  H    0.226443
    18  H    0.304998
    19  H    0.375965
    20  H    0.332712
 Sum of Mulliken charges =   0.00000

 Dipole moment (field-independent basis, Debye):
    X=             -7.3249    Y=             -2.9841    Z=              0.0001  Tot=              7.9095
 Quadrupole moment (field-independent basis, Debye-Ang):
   XX=            -89.6510   YY=            -75.9513   ZZ=            -80.0852
   XY=             32.0074   XZ=             -0.0015   YZ=             -0.0003

 Normal termination of Gaussian 09 at Tue Jul 21 03:46:19 2020.
