 Gaussian 09, Revision D.01,
 Gaussian 09:  ES64L-G09RevD.01 24-Apr-2013

 -----------------------------------------------------
 #opt M06/lanl2dz integral=ultrafine geom=connectivity
 -----------------------------------------------------

 -------------------
 Title Card Required
 -------------------
 Symbolic Z-matrix:
 Charge =  0 Multiplicity = 1

 SCF Done:  E(RM06) =  -1514.26215288     A.U. after   18 cycles
 SCF Done:  E(RM06) =  -1514.26566066     A.U. after   15 cycles
 SCF Done:  E(RM06) =  -1514.26667477     A.U. after   13 cycles
 SCF Done:  E(RM06) =  -1514.26722706     A.U. after   13 cycles
 SCF Done:  E(RM06) =  -1514.26758947     A.U. after   15 cycles
 SCF Done:  E(RM06) =  -1514.26851411     A.U. after   13 cycles
 SCF Done:  E(RM06) =  -1514.26888382     A.U. after   16 cycles
 SCF Done:  E(RM06) =  -1514.27038249     A.U. after   14 cycles
 SCF Done:  E(RM06) =  -1514.27079207     A.U. after   14 cycles
 SCF Done:  E(RM06) =  -1514.27094739     A.U. after   14 cycles
 SCF Done:  E(RM06) =  -1514.27110045     A.U. after   13 cycles
 SCF Done:  E(RM06) =  -1514.27111294     A.U. after   12 cycles
 SCF Done:  E(RM06) =  -1514.27111514     A.U. after   11 cycles
 SCF Done:  E(RM06) =  -1514.27111685     A.U. after    9 cycles
 SCF Done:  E(RM06) =  -1514.27111697     A.U. after    8 cycles
 SCF Done:  E(RM06) =  -1514.27111700     A.U. after    8 cycles
 SCF Done:  E(RM06) =  -1514.27111705     A.U. after    7 cycles
 SCF Done:  E(RM06) =  -1514.27111702     A.U. after    7 cycles
 SCF Done:  E(RM06) =  -1514.27111700     A.U. after    7 cycles
 SCF Done:  E(RM06) =  -1514.27111695     A.U. after    7 cycles
 Optimization completed.
    -- Stationary point found.

                         Standard orientation:
 ---------------------------------------------------------------------
 Center     Atomic      Atomic             Coordinates (Angstroms)
 Number     Number       Type             X           Y           Z
 ---------------------------------------------------------------------
      1          7           0        2.769343   -1.050035    0.330781
      2          6           0        3.160840    0.378383    0.323839
      3          6           0        4.671619    0.352803    0.363934
      4          6           0        3.896810   -1.972869    0.610504
      5          6           0        5.122840   -1.088669    0.537663
      6          1           0        2.731608    0.896606    1.191609
      7          1           0        2.752698    0.863407   -0.572503
      8          1           0        3.916584   -2.782947   -0.125730
      9          1           0        3.793040   -2.425175    1.604748
     10          1           0        5.205048    1.158024    0.852994
     11          8           0       -3.157999   -3.407822   -0.183000
     12          8           0       -5.644074   -2.171795   -0.194179
     13          8           0       -5.681611    0.056307   -0.646247
     14          7           0       -1.613488    0.445034   -0.189183
     15          7           0        0.566850   -0.384167    0.069728
     16          6           0       -0.741351   -0.655259   -0.048914
     17          6           0       -1.292517   -1.947510   -0.034178
     18          6           0       -2.962401    0.229554   -0.286132
     19          6           0       -3.557234   -1.009830   -0.276318
     20          6           0       -2.738277   -2.227770   -0.162937
     21          6           0       -0.373558   -3.009164    0.118053
     22          6           0        1.459568   -1.394061    0.215678
     23          1           0        5.983371   -1.326488    1.150052
     24          6           0        0.964466   -2.737535    0.239680
     25          6           0       -5.027723   -0.974118   -0.398164
     26          1           0       -3.588656    1.112678   -0.385583
     27          1           0       -0.749021   -4.028513    0.135802
     28          1           0       -6.616425   -2.067150   -0.289648
     29          6           0       -0.148264    4.386128   -0.104317
     30          6           0        0.241647    3.557057   -1.156819
     31          6           0       -0.248320    2.249102   -1.184249
     32          6           0       -0.995347    3.972000    0.918608
     33          6           0       -1.451378    2.658941    0.858469
     34          6           0       -1.103302    1.784842   -0.177088
     35          9           0        0.328886    5.681037   -0.072540
     36          1           0        0.032910    1.569168   -1.981097
     37          9           0        1.852549   -3.797043    0.389535
     38          6           0        5.377071   -0.366856   -0.780453
     39          1           0        7.381019   -0.708349   -1.300043
     40          1           0        6.878488    0.912152   -1.497605
     41          7           0        6.724839    0.018889   -1.050078
     42          1           0        4.729841   -0.669315   -1.613734
     43          1           0       -1.282241    4.632858    1.727800
     44          1           0        0.901827    3.938284   -1.926885
     45          9           0       -2.277499    2.204027    1.863822
 ---------------------------------------------------------------------

 The electronic state is 1-A.
 Alpha  occ. eigenvalues --  -24.83024 -24.82266 -24.81324 -19.26403 -19.21777
 Alpha  occ. eigenvalues --  -19.19507 -14.49768 -14.45059 -14.42588 -14.38985
 Alpha  occ. eigenvalues --  -10.40692 -10.39224 -10.38820 -10.37370 -10.37073
 Alpha  occ. eigenvalues --  -10.36506 -10.35047 -10.34850 -10.34345 -10.31181
 Alpha  occ. eigenvalues --  -10.30588 -10.30504 -10.30240 -10.30233 -10.29991
 Alpha  occ. eigenvalues --  -10.29521 -10.28470 -10.28371 -10.27424 -10.27367
 Alpha  occ. eigenvalues --   -1.28628  -1.27803  -1.26560  -1.13807  -1.06073
 Alpha  occ. eigenvalues --   -1.04847  -1.04448  -1.02251  -0.97258  -0.92981
 Alpha  occ. eigenvalues --   -0.92496  -0.86466  -0.86147  -0.83874  -0.81613
 Alpha  occ. eigenvalues --   -0.81371  -0.79145  -0.77233  -0.72969  -0.71619
 Alpha  occ. eigenvalues --   -0.69327  -0.68317  -0.66725  -0.64885  -0.64284
 Alpha  occ. eigenvalues --   -0.61634  -0.60743  -0.60018  -0.59215  -0.58680
 Alpha  occ. eigenvalues --   -0.57575  -0.56879  -0.55246  -0.54786  -0.54062
 Alpha  occ. eigenvalues --   -0.52498  -0.51656  -0.51378  -0.51240  -0.50443
 Alpha  occ. eigenvalues --   -0.50026  -0.49501  -0.49156  -0.48513  -0.48437
 Alpha  occ. eigenvalues --   -0.47995  -0.47919  -0.47011  -0.46392  -0.45802
 Alpha  occ. eigenvalues --   -0.45394  -0.45099  -0.44867  -0.43776  -0.42528
 Alpha  occ. eigenvalues --   -0.42471  -0.41638  -0.41047  -0.40658  -0.40557
 Alpha  occ. eigenvalues --   -0.40436  -0.39441  -0.39406  -0.39256  -0.34332
 Alpha  occ. eigenvalues --   -0.32953  -0.32214  -0.31701  -0.31273  -0.30723
 Alpha  occ. eigenvalues --   -0.30415  -0.29793  -0.29257  -0.26152  -0.25168
 Alpha  occ. eigenvalues --   -0.24921  -0.23589
 Alpha virt. eigenvalues --   -0.06663  -0.05172  -0.04802  -0.04110  -0.01243
 Alpha virt. eigenvalues --    0.02123   0.05288   0.08114   0.08900   0.09141
 Alpha virt. eigenvalues --    0.09729   0.09970   0.10424   0.10917   0.11334

 Mulliken charges:
               1
     1  N   -0.231493
     2  C   -0.343031
     3  C   -0.232795
     4  C   -0.352123
     5  C   -0.227506
     6  H    0.239750
     7  H    0.231291
     8  H    0.246011
     9  H    0.235634
    10  H    0.264884
    11  O   -0.285155
    12  O   -0.452812
    13  O   -0.344663
    14  N   -0.282781
    15  N   -0.103287
    16  C   -0.037098
    17  C    0.236427
    18  C   -0.249258
    19  C    0.094028
    20  C    0.154592
    21  C   -0.365038
    22  C    0.117107
    23  H    0.266113
    24  C    0.244213
    25  C    0.202833
    26  H    0.293799
    27  H    0.300209
    28  H    0.409405
    29  C    0.444667
    30  C   -0.398322
    31  C   -0.234457
    32  C   -0.527597
    33  C    0.324940
    34  C    0.305599
    35  F   -0.250487
    36  H    0.254299
    37  F   -0.255981
    38  C   -0.102078
    39  H    0.302001
    40  H    0.300695
    41  N   -0.716134
    42  H    0.208710
    43  H    0.287129
    44  H    0.259527
    45  F   -0.231769
 Sum of Mulliken charges =   0.00000

 Dipole moment (field-independent basis, Debye):
    X=              7.4336    Y=              3.2936    Z=             -1.5061  Tot=              8.2689
 Quadrupole moment (field-independent basis, Debye-Ang):
   XX=           -162.7170   YY=           -188.7952   ZZ=           -163.5481
   XY=             -9.0423   XZ=             -7.8211   YZ=             -1.6829

 Normal termination of Gaussian 09 at Tue Jul 21 15:27:22 2020.
