 Gaussian 09, Revision D.01,
 Gaussian 09:  ES64L-G09RevD.01 24-Apr-2013

 -----------------------------------
 # opt b3lyp/3-21g geom=connectivity
 -----------------------------------

 -------------------
 Title Card Required
 -------------------
 Symbolic Z-matrix:
 Charge =  0 Multiplicity = 1

 SCF Done:  E(RB3LYP) =  -943.637324546     A.U. after   18 cycles
 SCF Done:  E(RB3LYP) =  -943.641582933     A.U. after   14 cycles
 SCF Done:  E(RB3LYP) =  -943.642378290     A.U. after   14 cycles
 SCF Done:  E(RB3LYP) =  -943.642571399     A.U. after   14 cycles
 SCF Done:  E(RB3LYP) =  -943.643144540     A.U. after   16 cycles
 SCF Done:  E(RB3LYP) =  -943.643716739     A.U. after   14 cycles
 SCF Done:  E(RB3LYP) =  -943.644995503     A.U. after   15 cycles
 SCF Done:  E(RB3LYP) =  -943.647168311     A.U. after   16 cycles
 SCF Done:  E(RB3LYP) =  -943.648052055     A.U. after   16 cycles
 SCF Done:  E(RB3LYP) =  -943.648893681     A.U. after   16 cycles
 SCF Done:  E(RB3LYP) =  -943.649206370     A.U. after   13 cycles
 SCF Done:  E(RB3LYP) =  -943.648560381     A.U. after   16 cycles
 SCF Done:  E(RB3LYP) =  -943.649269801     A.U. after   12 cycles
 SCF Done:  E(RB3LYP) =  -943.649285324     A.U. after   12 cycles
 SCF Done:  E(RB3LYP) =  -943.649287338     A.U. after    9 cycles
 SCF Done:  E(RB3LYP) =  -943.649287652     A.U. after    9 cycles
 Optimization completed.
    -- Stationary point found.

                         Standard orientation:
 ---------------------------------------------------------------------
 Center     Atomic      Atomic             Coordinates (Angstroms)
 Number     Number       Type             X           Y           Z
 ---------------------------------------------------------------------
      1          8           0        4.070725    0.640055   -0.141378
      2          8           0        3.772018   -1.701729    0.150516
      3          8           0       -1.324057   -2.564169    0.207535
      4          8           0       -3.908889   -2.024476    0.138768
      5          8           0       -4.615719    0.124235   -0.151674
      6          7           0       -0.779241    1.445431   -0.313246
      7          7           0       -2.041862    0.950985   -0.246199
      8          6           0        0.354480    0.648612   -0.188112
      9          6           0        0.173250   -0.736935   -0.011815
     10          6           0        2.715169    0.324059   -0.119116
     11          6           0        1.663044    1.194178   -0.239668
     12          6           0        2.531362   -1.058741    0.053270
     13          6           0        1.280447   -1.603426    0.109710
     14          6           0       -0.736227    2.925864   -0.435619
     15          6           0       -1.173103   -1.337351    0.053629
     16          6           0       -2.245261   -0.340678   -0.078870
     17          6           0        4.794484   -0.647100    0.019379
     18          6           0       -0.610356    3.601510    0.941061
     19          6           0       -3.694151   -0.679671   -0.040468
     20          1           0        1.844204    2.249431   -0.365064
     21          1           0        1.089949   -2.658772    0.241993
     22          1           0        0.088474    3.196687   -1.099175
     23          1           0       -1.679017    3.194589   -0.912059
     24          1           0        5.393711   -0.604745    0.929436
     25          1           0        5.394532   -0.829105   -0.873013
     26          1           0       -1.464556    3.318222    1.562348
     27          1           0        0.311175    3.298543    1.447250
     28          1           0       -0.605176    4.689897    0.821471
     29          1           0       -4.897016   -2.162913    0.152505
 ---------------------------------------------------------------------

 The electronic state is 1-A.
 Alpha  occ. eigenvalues --  -19.11266 -19.10633 -19.06843 -19.01687 -19.00862
 Alpha  occ. eigenvalues --  -14.36564 -14.32358 -10.27008 -10.25296 -10.22530
 Alpha  occ. eigenvalues --  -10.21538 -10.21157 -10.20849 -10.18875 -10.18299
 Alpha  occ. eigenvalues --  -10.16410 -10.15792 -10.15186 -10.13548  -1.14039
 Alpha  occ. eigenvalues --   -1.09412  -1.07144  -1.05288  -1.02505  -1.00479
 Alpha  occ. eigenvalues --   -0.90990  -0.88221  -0.81066  -0.78906  -0.77494
 Alpha  occ. eigenvalues --   -0.72877  -0.70069  -0.67517  -0.66347  -0.62830
 Alpha  occ. eigenvalues --   -0.61849  -0.59593  -0.55756  -0.54106  -0.53574
 Alpha  occ. eigenvalues --   -0.52210  -0.49570  -0.48720  -0.48279  -0.48093
 Alpha  occ. eigenvalues --   -0.46235  -0.45260  -0.44508  -0.43592  -0.43293
 Alpha  occ. eigenvalues --   -0.42765  -0.40362  -0.40098  -0.39586  -0.38348
 Alpha  occ. eigenvalues --   -0.37930  -0.37480  -0.37277  -0.36769  -0.36601
 Alpha  occ. eigenvalues --   -0.33974  -0.30742  -0.28962  -0.27296  -0.25690
 Alpha  occ. eigenvalues --   -0.25436  -0.22825  -0.21689
 Alpha virt. eigenvalues --   -0.06860  -0.04038  -0.00009   0.03865   0.06463
 Alpha virt. eigenvalues --    0.08541   0.09926   0.11032   0.11251   0.11596
 Alpha virt. eigenvalues --    0.12147   0.13583   0.13761   0.15666   0.15999

 Mulliken charges:
               1
     1  O   -0.538796
     2  O   -0.537243
     3  O   -0.488148
     4  O   -0.541213
     5  O   -0.485278
     6  N   -0.594491
     7  N   -0.286875
     8  C    0.380300
     9  C   -0.053476
    10  C    0.303735
    11  C   -0.215970
    12  C    0.300738
    13  C   -0.183954
    14  C   -0.194472
    15  C    0.402187
    16  C    0.144096
    17  C    0.074074
    18  C   -0.565823
    19  C    0.689348
    20  H    0.217624
    21  H    0.241370
    22  H    0.214079
    23  H    0.256516
    24  H    0.234513
    25  H    0.234317
    26  H    0.224201
    27  H    0.206291
    28  H    0.201746
    29  H    0.360604
 Sum of Mulliken charges =   0.00000

 Dipole moment (field-independent basis, Debye):
    X=              5.0157    Y=              3.5775    Z=             -0.1343  Tot=              6.1623
 Quadrupole moment (field-independent basis, Debye-Ang):
   XX=            -98.0119   YY=           -106.4161   ZZ=           -107.0848
   XY=              2.1637   XZ=             -1.1205   YZ=              0.4075

 Normal termination of Gaussian 09 at Mon Jul  6 19:08:53 2020.
