 Gaussian 09, Revision D.01,
 Gaussian 09:  ES64L-G09RevD.01 24-Apr-2013

 -----------------------------------------------------
 #opt M06/lanl2dz integral=ultrafine geom=connectivity
 -----------------------------------------------------

 -------------------
 Title Card Required
 -------------------
 Symbolic Z-matrix:
 Charge =  0 Multiplicity = 1

 SCF Done:  E(RM06) =  -799.089893464     A.U. after   17 cycles
 SCF Done:  E(RM06) =  -799.089893407     A.U. after    8 cycles
 SCF Done:  E(RM06) =  -799.089893456     A.U. after    8 cycles
 Optimization completed.
    -- Stationary point found.

                         Standard orientation:
 ---------------------------------------------------------------------
 Center     Atomic      Atomic             Coordinates (Angstroms)
 Number     Number       Type             X           Y           Z
 ---------------------------------------------------------------------
      1          8           0       -1.657672   -2.373094    0.224660
      2          8           0       -3.974216   -1.164015    0.119600
      3          8           0       -4.000952    1.086210   -0.173493
      4          7           0        0.139367    1.323775   -0.308182
      5          7           0        2.283508    0.372249   -0.200858
      6          6           0        0.947792    0.189623   -0.160887
      7          6           0        0.340132   -1.075343    0.017141
      8          6           0        0.753224    2.668010   -0.441463
      9          6           0       -1.212776    1.195531   -0.252821
     10          6           0       -1.868920   -0.003438   -0.079340
     11          6           0       -1.114170   -1.230419    0.064774
     12          6           0        1.193868   -2.186015    0.151255
     13          6           0        3.090272   -0.699953   -0.071614
     14          6           0        1.003741    3.290860    0.930125
     15          6           0        2.571182   -2.004607    0.107452
     16          6           0       -3.363808    0.033200   -0.050589
     17          6           0        4.565414   -0.437180   -0.129659
     18          1           0        1.691311    2.547851   -0.986796
     19          1           0        0.069204    3.278291   -1.040382
     20          1           0       -1.805525    2.102412   -0.356699
     21          1           0        0.736736   -3.161830    0.287209
     22          1           0        1.436328    4.289951    0.819549
     23          1           0        0.070110    3.381865    1.497119
     24          1           0        1.703876    2.675215    1.503591
     25          1           0        3.254073   -2.840866    0.208097
     26          1           0        4.849156    0.287927    0.640055
     27          1           0        4.831087    0.002621   -1.096826
     28          1           0        5.145606   -1.352521    0.013247
     29          1           0       -3.315077   -1.917509    0.202745
 ---------------------------------------------------------------------

 The electronic state is 1-A.
 Alpha  occ. eigenvalues --  -19.23701 -19.22211 -19.20292 -14.49872 -14.43749
 Alpha  occ. eigenvalues --  -10.39532 -10.37744 -10.36954 -10.35053 -10.34394
 Alpha  occ. eigenvalues --  -10.31964 -10.30674 -10.30319 -10.29293 -10.28852
 Alpha  occ. eigenvalues --  -10.26604 -10.26208  -1.11545  -1.07279  -1.05709
 Alpha  occ. eigenvalues --   -1.03479  -0.99393  -0.87430  -0.84177  -0.83942
 Alpha  occ. eigenvalues --   -0.79310  -0.76157  -0.71723  -0.69071  -0.67774
 Alpha  occ. eigenvalues --   -0.63750  -0.62542  -0.59810  -0.58282  -0.57008
 Alpha  occ. eigenvalues --   -0.52933  -0.52025  -0.50580  -0.48665  -0.48541
 Alpha  occ. eigenvalues --   -0.48090  -0.46715  -0.45849  -0.44944  -0.44003
 Alpha  occ. eigenvalues --   -0.43540  -0.43248  -0.42168  -0.41662  -0.41171
 Alpha  occ. eigenvalues --   -0.40718  -0.38950  -0.38528  -0.36972  -0.33112
 Alpha  occ. eigenvalues --   -0.31355  -0.30464  -0.30331  -0.28681  -0.27680
 Alpha  occ. eigenvalues --   -0.26459
 Alpha virt. eigenvalues --   -0.08567  -0.06298  -0.02619   0.01235   0.08947
 Alpha virt. eigenvalues --    0.09667   0.10882   0.11935   0.12329   0.12563
 Alpha virt. eigenvalues --    0.14012   0.15254   0.15376   0.15624   0.16389

 Mulliken charges:
               1
     1  O   -0.400750
     2  O   -0.470412
     3  O   -0.327628
     4  N   -0.179898
     5  N   -0.066290
     6  C   -0.017626
     7  C    0.252857
     8  C   -0.316877
     9  C   -0.281811
    10  C   -0.000944
    11  C    0.200989
    12  C   -0.226513
    13  C    0.206716
    14  C   -0.631582
    15  C   -0.342753
    16  C    0.267385
    17  C   -0.749793
    18  H    0.258613
    19  H    0.219710
    20  H    0.290906
    21  H    0.278171
    22  H    0.223800
    23  H    0.217701
    24  H    0.236991
    25  H    0.227478
    26  H    0.242430
    27  H    0.243644
    28  H    0.214544
    29  H    0.430944
 Sum of Mulliken charges =   0.00000

 Dipole moment (field-independent basis, Debye):
    X=              9.9747    Y=              1.8518    Z=             -0.1838  Tot=             10.1468
 Quadrupole moment (field-independent basis, Debye-Ang):
   XX=           -122.7601   YY=            -90.5630   ZZ=            -98.0705
   XY=             -4.0608   XZ=              0.2431   YZ=             -0.3739

 Normal termination of Gaussian 09 at Sat Aug 22 21:45:14 2020.
