 Gaussian 09, Revision D.01,
 Gaussian 09:  ES64L-G09RevD.01 24-Apr-2013

 -----------------------------------
 # opt b3lyp/3-21g geom=connectivity
 -----------------------------------

 -------------------
 Title Card Required
 -------------------
 Symbolic Z-matrix:
 Charge =  0 Multiplicity = 1

 SCF Done:  E(RB3LYP) =  -1220.27770090     A.U. after   17 cycles
 SCF Done:  E(RB3LYP) =  -1220.28532608     A.U. after   16 cycles
 SCF Done:  E(RB3LYP) =  -1220.28680119     A.U. after   13 cycles
 SCF Done:  E(RB3LYP) =  -1220.28869675     A.U. after   13 cycles
 SCF Done:  E(RB3LYP) =  -1220.28845099     A.U. after   13 cycles
 SCF Done:  E(RB3LYP) =  -1220.28911256     A.U. after   11 cycles
 SCF Done:  E(RB3LYP) =  -1220.28943786     A.U. after   13 cycles
 SCF Done:  E(RB3LYP) =  -1220.28949909     A.U. after   13 cycles
 SCF Done:  E(RB3LYP) =  -1220.28970146     A.U. after   13 cycles
 SCF Done:  E(RB3LYP) =  -1220.28986701     A.U. after   13 cycles
 SCF Done:  E(RB3LYP) =  -1220.28998162     A.U. after   12 cycles
 SCF Done:  E(RB3LYP) =  -1220.29001305     A.U. after   12 cycles
 SCF Done:  E(RB3LYP) =  -1220.29002029     A.U. after   11 cycles
 SCF Done:  E(RB3LYP) =  -1220.29002181     A.U. after    9 cycles
 SCF Done:  E(RB3LYP) =  -1220.29002239     A.U. after    8 cycles
 SCF Done:  E(RB3LYP) =  -1220.29002254     A.U. after    7 cycles
 Optimization completed.
    -- Stationary point found.

                         Standard orientation:
 ---------------------------------------------------------------------
 Center     Atomic      Atomic             Coordinates (Angstroms)
 Number     Number       Type             X           Y           Z
 ---------------------------------------------------------------------
      1          6           0       -1.253632    2.771200   -0.474675
      2          6           0       -0.454973    3.465714    0.623545
      3          6           0       -1.889658    3.887030    0.337553
      4          1           0       -2.062014    4.826426   -0.172567
      5          1           0       -2.635189    3.615792    1.074061
      6          1           0       -0.284469    2.894067    1.526860
      7          1           0        0.349479    4.125164    0.320417
      8          1           0       -0.986410    2.990603   -1.503368
      9          7           0        2.860576   -0.179832   -0.849439
     10          6           0        3.325363    1.134455   -1.335158
     11          6           0        3.900553    1.963378   -0.169271
     12          7           0        5.007911    1.175037    0.422475
     13          6           0        3.967372   -0.941270   -0.215303
     14          6           0        4.561185   -0.136878    0.960597
     15          1           0        5.514984    1.711227    1.134491
     16          1           0        2.514077    1.654217   -1.847787
     17          1           0        4.138687    0.952481   -2.047062
     18          1           0        4.759004   -1.079815   -0.961337
     19          1           0        3.599691   -1.905979    0.115910
     20          1           0        3.770389   -0.028413    1.726466
     21          1           0        4.305239    2.907666   -0.549232
     22          1           0        3.087430    2.185207    0.546409
     23          8           0       -3.126835   -2.447370    0.293037
     24          8           0       -5.564999   -1.340646    0.427741
     25          8           0       -5.718232    0.926526    0.254273
     26          7           0       -1.705812    1.402110   -0.257134
     27          6           0        0.566359    0.591846   -0.518333
     28          6           0       -0.788786    0.327066   -0.303912
     29          6           0       -1.260565   -0.994745   -0.121304
     30          6           0       -3.028938    1.148198   -0.086830
     31          6           0       -3.555944   -0.095326    0.092297
     32          6           0       -2.702353   -1.287484    0.109061
     33          6           0       -0.305647   -2.045477   -0.174740
     34          6           0        1.521696   -0.431396   -0.585347
     35          6           0        1.021263   -1.745432   -0.415057
     36          6           0       -5.016947   -0.094655    0.260809
     37          1           0       -3.700894    1.995973   -0.096287
     38          6           0       -0.671140   -3.510938   -0.014678
     39          1           0       -6.549426   -1.212498    0.527392
     40          9           0        1.922671   -2.799597   -0.504444
     41          1           0       -1.139738   -3.684368    0.955842
     42          1           0       -1.410077   -3.806120   -0.762048
     43          1           0        0.227543   -4.118285   -0.113812
     44          6           0        5.770923   -0.870362    1.555143
     45          1           0        6.543968   -0.973263    0.787209
     46          1           0        5.482610   -1.862794    1.917482
     47          1           0        6.189966   -0.306291    2.396899
     48          1           0        0.886129    1.616535   -0.594053
 ---------------------------------------------------------------------

 The electronic state is 1-A.
 Alpha  occ. eigenvalues --  -24.57157 -19.06216 -19.00840 -18.98822 -14.33662
 Alpha  occ. eigenvalues --  -14.28377 -14.24153 -10.24511 -10.20490 -10.20165
 Alpha  occ. eigenvalues --  -10.19271 -10.19115 -10.19107 -10.18874 -10.16673
 Alpha  occ. eigenvalues --  -10.16016 -10.15940 -10.15918 -10.15707 -10.15408
 Alpha  occ. eigenvalues --  -10.14839 -10.13781 -10.13378 -10.13176 -10.12007
 Alpha  occ. eigenvalues --  -10.09779  -1.20247  -1.08501  -1.01315  -1.00431
 Alpha  occ. eigenvalues --   -0.99510  -0.96597  -0.90663  -0.89289  -0.86221
 Alpha  occ. eigenvalues --   -0.80918  -0.79294  -0.77896  -0.77152  -0.72170
 Alpha  occ. eigenvalues --   -0.69935  -0.69187  -0.67417  -0.65464  -0.64537
 Alpha  occ. eigenvalues --   -0.63242  -0.62035  -0.60346  -0.58439  -0.58050
 Alpha  occ. eigenvalues --   -0.56005  -0.54786  -0.53581  -0.52655  -0.51572
 Alpha  occ. eigenvalues --   -0.50441  -0.48171  -0.47964  -0.47682  -0.46788
 Alpha  occ. eigenvalues --   -0.46590  -0.45889  -0.45155  -0.44296  -0.44079
 Alpha  occ. eigenvalues --   -0.43386  -0.42660  -0.42426  -0.41434  -0.41191
 Alpha  occ. eigenvalues --   -0.40465  -0.39926  -0.39623  -0.39434  -0.39093
 Alpha  occ. eigenvalues --   -0.38598  -0.37825  -0.37113  -0.36041  -0.35859
 Alpha  occ. eigenvalues --   -0.35785  -0.35259  -0.35111  -0.34784  -0.33613
 Alpha  occ. eigenvalues --   -0.33387  -0.32417  -0.29034  -0.28020  -0.25378
 Alpha  occ. eigenvalues --   -0.25362  -0.22358  -0.21182  -0.21144  -0.19441
 Alpha virt. eigenvalues --   -0.03469  -0.02410   0.01731   0.04780   0.08240
 Alpha virt. eigenvalues --    0.09092   0.09482   0.09979   0.10814   0.11025
 Alpha virt. eigenvalues --    0.12037   0.12535   0.12943   0.13629   0.14505

 Mulliken charges:
               1
     1  C   -0.050189
     2  C   -0.381580
     3  C   -0.405010
     4  H    0.223342
     5  H    0.234285
     6  H    0.236382
     7  H    0.211320
     8  H    0.231455
     9  N   -0.689244
    10  C   -0.193491
    11  C   -0.228550
    12  N   -0.559407
    13  C   -0.198929
    14  C   -0.075361
    15  H    0.271930
    16  H    0.200037
    17  H    0.225891
    18  H    0.209487
    19  H    0.228370
    20  H    0.174015
    21  H    0.195910
    22  H    0.170421
    23  O   -0.509322
    24  O   -0.539756
    25  O   -0.522159
    26  N   -0.845189
    27  C   -0.224400
    28  C    0.363502
    29  C   -0.072217
    30  C    0.217123
    31  C   -0.212055
    32  C    0.401211
    33  C   -0.027163
    34  C    0.337821
    35  C    0.287043
    36  C    0.663452
    37  H    0.260844
    38  C   -0.572488
    39  H    0.356570
    40  F   -0.284556
    41  H    0.227784
    42  H    0.228930
    43  H    0.185959
    44  C   -0.544743
    45  H    0.204820
    46  H    0.193597
    47  H    0.185770
    48  H    0.208536
 Sum of Mulliken charges =   0.00000

 Dipole moment (field-independent basis, Debye):
    X=              5.0141    Y=              6.0589    Z=              0.4894  Tot=              7.8798
 Quadrupole moment (field-independent basis, Debye-Ang):
   XX=           -156.0629   YY=           -145.3552   ZZ=           -150.2512
   XY=             -0.4687   XZ=              5.2233   YZ=             -2.1065

 Normal termination of Gaussian 09 at Mon Jul  6 12:20:28 2020.
