 Gaussian 09, Revision D.01,
 Gaussian 09:  ES64L-G09RevD.01 24-Apr-2013

 -----------------------------------------------------
 #opt M06/lanl2dz integral=ultrafine geom=connectivity
 -----------------------------------------------------

 -------------------
 Title Card Required
 -------------------
 Symbolic Z-matrix:
 Charge =  0 Multiplicity = 1

 SCF Done:  E(RM06) =  -1347.15122897     A.U. after   19 cycles
 SCF Done:  E(RM06) =  -1347.15432077     A.U. after   15 cycles
 SCF Done:  E(RM06) =  -1347.15471824     A.U. after   14 cycles
 SCF Done:  E(RM06) =  -1347.15487776     A.U. after   15 cycles
 SCF Done:  E(RM06) =  -1347.15502764     A.U. after   14 cycles
 SCF Done:  E(RM06) =  -1347.15509912     A.U. after   13 cycles
 SCF Done:  E(RM06) =  -1347.15513410     A.U. after   13 cycles
 SCF Done:  E(RM06) =  -1347.15514627     A.U. after   12 cycles
 SCF Done:  E(RM06) =  -1347.15515307     A.U. after   12 cycles
 SCF Done:  E(RM06) =  -1347.15515231     A.U. after   12 cycles
 SCF Done:  E(RM06) =  -1347.15515451     A.U. after    9 cycles
 SCF Done:  E(RM06) =  -1347.15515540     A.U. after    9 cycles
 SCF Done:  E(RM06) =  -1347.15515583     A.U. after    9 cycles
 SCF Done:  E(RM06) =  -1347.15515610     A.U. after   12 cycles
 SCF Done:  E(RM06) =  -1347.15515609     A.U. after    8 cycles
 SCF Done:  E(RM06) =  -1347.15515615     A.U. after    8 cycles
 Optimization completed.
    -- Stationary point found.

                         Standard orientation:
 ---------------------------------------------------------------------
 Center     Atomic      Atomic             Coordinates (Angstroms)
 Number     Number       Type             X           Y           Z
 ---------------------------------------------------------------------
      1          9           0        1.094909    1.507236   -0.341510
      2          9           0        1.608921   -3.105463    0.804409
      3          9           0       -2.331886    3.375915    1.393470
      4          8           0       -3.276580   -2.668198    0.085084
      5          8           0       -5.781248   -1.468226   -0.016048
      6          8           0       -5.846253    0.670440   -0.786955
      7          7           0        2.769811   -0.565761    0.361999
      8          7           0        5.434307    0.255682   -0.178273
      9          7           0       -1.780697    1.169203   -0.455475
     10          6           0        3.358609    0.577550    1.074550
     11          6           0        3.768407   -1.560028   -0.058497
     12          6           0        4.422949    1.246589    0.210304
     13          6           0        4.833006   -0.865705   -0.909426
     14          6           0        1.409453   -0.772712    0.256214
     15          6           0       -0.888671    0.117397   -0.155185
     16          6           0        0.509266    0.264984   -0.059358
     17          6           0        6.552582    0.856207   -0.903532
     18          6           0        0.797767   -2.040136    0.440332
     19          6           0       -1.419799   -1.182413    0.035396
     20          6           0       -0.554033   -2.250530    0.321712
     21          6           0       -1.356201    2.574007   -0.630800
     22          6           0       -2.874980   -1.489541   -0.045857
     23          6           0       -3.121133    0.913126   -0.493219
     24          6           0       -3.708070   -0.315937   -0.304264
     25          6           0       -1.080021    3.252357    0.697669
     26          6           0       -5.178924   -0.309145   -0.403704
     27          1           0        2.581498    1.290648    1.355146
     28          1           0        3.838405    0.202757    1.992635
     29          1           0        4.244567   -2.017902    0.820892
     30          1           0        3.286198   -2.349416   -0.638995
     31          1           0        3.935933    1.701510   -0.679832
     32          1           0        4.914662    2.045159    0.779331
     33          1           0        5.621585   -1.586329   -1.158850
     34          1           0        4.368109   -0.520843   -1.859753
     35          1           0        7.314429    0.095982   -1.108060
     36          1           0        7.011728    1.642180   -0.293767
     37          1           0        6.242281    1.304578   -1.870491
     38          1           0       -0.990344   -3.232547    0.481432
     39          1           0       -0.478970    2.629116   -1.274354
     40          1           0       -2.175579    3.101903   -1.127363
     41          1           0       -3.768019    1.764438   -0.690502
     42          1           0       -0.408390    2.671092    1.336048
     43          1           0       -0.682269    4.260588    0.549463
     44          1           0       -6.755852   -1.384515   -0.108706
 ---------------------------------------------------------------------

 The electronic state is 1-A.
 Alpha  occ. eigenvalues --  -24.83478 -24.81187 -24.78833 -19.26334 -19.21696
 Alpha  occ. eigenvalues --  -19.19629 -14.49988 -14.43912 -14.40235 -10.40610
 Alpha  occ. eigenvalues --  -10.37684 -10.36626 -10.36047 -10.35553 -10.35093
 Alpha  occ. eigenvalues --  -10.35035 -10.34210 -10.33379 -10.29919 -10.29568
 Alpha  occ. eigenvalues --  -10.29216 -10.28641 -10.28602 -10.28581 -10.28157
 Alpha  occ. eigenvalues --  -10.27455  -1.28536  -1.26538  -1.23176  -1.13722
 Alpha  occ. eigenvalues --   -1.05326  -1.04573  -1.03925  -0.99633  -0.94754
 Alpha  occ. eigenvalues --   -0.90675  -0.85657  -0.82313  -0.81106  -0.79804
 Alpha  occ. eigenvalues --   -0.79001  -0.75163  -0.71216  -0.70078  -0.69458
 Alpha  occ. eigenvalues --   -0.67745  -0.66277  -0.64746  -0.64312  -0.60970
 Alpha  occ. eigenvalues --   -0.59159  -0.58586  -0.57257  -0.55482  -0.54579
 Alpha  occ. eigenvalues --   -0.54051  -0.53557  -0.52752  -0.51705  -0.50612
 Alpha  occ. eigenvalues --   -0.50153  -0.49839  -0.49147  -0.48829  -0.48551
 Alpha  occ. eigenvalues --   -0.48123  -0.47930  -0.47486  -0.47200  -0.46480
 Alpha  occ. eigenvalues --   -0.46108  -0.44879  -0.44714  -0.44132  -0.43083
 Alpha  occ. eigenvalues --   -0.42227  -0.41187  -0.40793  -0.40668  -0.40106
 Alpha  occ. eigenvalues --   -0.39734  -0.39203  -0.38424  -0.38173  -0.38009
 Alpha  occ. eigenvalues --   -0.37683  -0.37087  -0.36376  -0.33062  -0.31964
 Alpha  occ. eigenvalues --   -0.29850  -0.29242  -0.25446  -0.25246  -0.23843
 Alpha  occ. eigenvalues --   -0.22712
 Alpha virt. eigenvalues --   -0.06371  -0.05546  -0.01252   0.01815   0.04127
 Alpha virt. eigenvalues --    0.06444   0.08245   0.09380   0.09844   0.10120
 Alpha virt. eigenvalues --    0.10210   0.11138   0.11827   0.12137   0.12777

 Mulliken charges:
               1
     1  F   -0.275618
     2  F   -0.250700
     3  F   -0.277514
     4  O   -0.282773
     5  O   -0.453250
     6  O   -0.346444
     7  N   -0.246291
     8  N   -0.109506
     9  N   -0.222488
    10  C   -0.367054
    11  C   -0.350805
    12  C   -0.339180
    13  C   -0.340611
    14  C    0.179052
    15  C    0.213475
    16  C    0.159714
    17  C   -0.582092
    18  C    0.295726
    19  C    0.262307
    20  C   -0.636324
    21  C   -0.387581
    22  C    0.162202
    23  C   -0.244150
    24  C    0.095486
    25  C   -0.143248
    26  C    0.207782
    27  H    0.214248
    28  H    0.235605
    29  H    0.229620
    30  H    0.227846
    31  H    0.194686
    32  H    0.208926
    33  H    0.218400
    34  H    0.180091
    35  H    0.220001
    36  H    0.218191
    37  H    0.185042
    38  H    0.303518
    39  H    0.263159
    40  H    0.248247
    41  H    0.280091
    42  H    0.225527
    43  H    0.217408
    44  H    0.409278
 Sum of Mulliken charges =   0.00000

 Dipole moment (field-independent basis, Debye):
    X=              6.9711    Y=              4.9161    Z=             -1.9551  Tot=              8.7514
 Quadrupole moment (field-independent basis, Debye-Ang):
   XX=           -157.2596   YY=           -154.3463   ZZ=           -149.9826
   XY=              1.7083   XZ=             -2.7389   YZ=             -0.4968

 Normal termination of Gaussian 09 at Thu Aug 13 13:42:02 2020.
