 Gaussian 09, Revision D.01,
 Gaussian 09:  ES64L-G09RevD.01 24-Apr-2013

 -----------------------------------
 # opt b3lyp/3-21g geom=connectivity
 -----------------------------------

 -------------------
 Title Card Required
 -------------------
 Symbolic Z-matrix:
 Charge =  0 Multiplicity = 1

 SCF Done:  E(RB3LYP) =  -1037.44729945     A.U. after   17 cycles
 SCF Done:  E(RB3LYP) =  -1037.45087561     A.U. after   14 cycles
 SCF Done:  E(RB3LYP) =  -1037.45146815     A.U. after   13 cycles
 SCF Done:  E(RB3LYP) =  -1037.45076873     A.U. after   15 cycles
 SCF Done:  E(RB3LYP) =  -1037.45176299     A.U. after   12 cycles
 SCF Done:  E(RB3LYP) =  -1037.45202298     A.U. after   12 cycles
 SCF Done:  E(RB3LYP) =  -1037.45220821     A.U. after   12 cycles
 SCF Done:  E(RB3LYP) =  -1037.45223073     A.U. after   12 cycles
 SCF Done:  E(RB3LYP) =  -1037.45229758     A.U. after   12 cycles
 SCF Done:  E(RB3LYP) =  -1037.45233360     A.U. after   11 cycles
 SCF Done:  E(RB3LYP) =  -1037.45233689     A.U. after   10 cycles
 SCF Done:  E(RB3LYP) =  -1037.45233746     A.U. after    8 cycles
 SCF Done:  E(RB3LYP) =  -1037.45233768     A.U. after    7 cycles
 SCF Done:  E(RB3LYP) =  -1037.45233772     A.U. after    7 cycles
 Optimization completed.
    -- Stationary point found.

                         Standard orientation:
 ---------------------------------------------------------------------
 Center     Atomic      Atomic             Coordinates (Angstroms)
 Number     Number       Type             X           Y           Z
 ---------------------------------------------------------------------
      1          8           0       -2.875974   -2.482165    0.273124
      2          8           0       -5.323257   -1.276312    0.321207
      3          8           0       -5.418298    0.988403    0.057433
      4          7           0        2.979855   -0.379079   -0.504184
      5          7           0        5.564006    0.151387    0.463492
      6          7           0       -1.360733    1.336777   -0.332096
      7          7           0        0.818306    0.487771   -0.409867
      8          7           0        1.229970   -1.882397   -0.160926
      9          6           0        3.560877    0.966053   -0.676371
     10          6           0        3.963702   -1.478711   -0.415988
     11          6           0        4.550453    1.232054    0.473112
     12          6           0        4.949943   -1.172824    0.725698
     13          6           0        1.649294   -0.585881   -0.355528
     14          6           0       -0.492114    0.249053   -0.270757
     15          6           0       -1.025210   -1.034552   -0.068979
     16          6           0       -0.820291    2.714456   -0.508950
     17          6           0       -0.080772   -2.069426   -0.024490
     18          6           0       -2.699414    1.119340   -0.187133
     19          6           0       -2.463313   -1.320458    0.092309
     20          6           0       -3.280767   -0.100615    0.011982
     21          6           0       -0.335115    3.304225    0.826378
     22          6           0       -4.746565   -0.048303    0.126552
     23          1           0        2.745075    1.686539   -0.683699
     24          1           0        4.111054    0.993569   -1.623745
     25          1           0        4.521308   -1.526149   -1.358161
     26          1           0        3.411700   -2.401276   -0.244144
     27          1           0        5.052567    2.190484    0.306547
     28          1           0        3.978091    1.286048    1.417506
     29          1           0        4.397751   -1.214289    1.682047
     30          1           0        5.738027   -1.932284    0.737379
     31          1           0        6.334443    0.347234    1.108915
     32          1           0        0.006699    2.644911   -1.216035
     33          1           0       -1.622710    3.317763   -0.940840
     34          1           0       -0.445519   -3.079007    0.130952
     35          1           0       -3.345186    1.988013   -0.241819
     36          1           0       -1.150866    3.334155    1.555131
     37          1           0        0.477378    2.688450    1.219568
     38          1           0        0.034823    4.323277    0.669742
     39          1           0       -6.308474   -1.134537    0.384588
 ---------------------------------------------------------------------

 The electronic state is 1-A.
 Alpha  occ. eigenvalues --  -19.06870 -19.01567 -18.99654 -14.33824 -14.29670
 Alpha  occ. eigenvalues --  -14.26327 -14.25748 -14.24312 -10.25189 -10.24743
 Alpha  occ. eigenvalues --  -10.23162 -10.20020 -10.19930 -10.18549 -10.17969
 Alpha  occ. eigenvalues --  -10.16331 -10.15903 -10.15846 -10.15602 -10.14205
 Alpha  occ. eigenvalues --  -10.13852 -10.13118  -1.09152  -1.03663  -1.01380
 Alpha  occ. eigenvalues --   -1.00631  -1.00176  -0.95257  -0.90528  -0.90192
 Alpha  occ. eigenvalues --   -0.83058  -0.80168  -0.78009  -0.77029  -0.72974
 Alpha  occ. eigenvalues --   -0.70546  -0.67435  -0.65826  -0.65400  -0.62088
 Alpha  occ. eigenvalues --   -0.61358  -0.59978  -0.55987  -0.55598  -0.53498
 Alpha  occ. eigenvalues --   -0.52152  -0.49850  -0.48723  -0.48327  -0.47661
 Alpha  occ. eigenvalues --   -0.47263  -0.46909  -0.45686  -0.45179  -0.44658
 Alpha  occ. eigenvalues --   -0.44228  -0.43340  -0.42813  -0.42425  -0.41380
 Alpha  occ. eigenvalues --   -0.40475  -0.39691  -0.38260  -0.37861  -0.37565
 Alpha  occ. eigenvalues --   -0.36711  -0.36478  -0.36301  -0.36094  -0.35681
 Alpha  occ. eigenvalues --   -0.31542  -0.31252  -0.30958  -0.28762  -0.26071
 Alpha  occ. eigenvalues --   -0.24614  -0.23169  -0.22385  -0.22190  -0.21025
 Alpha virt. eigenvalues --   -0.05407  -0.02944  -0.00041   0.03903   0.09349
 Alpha virt. eigenvalues --    0.09465   0.10757   0.11469   0.11901   0.13219
 Alpha virt. eigenvalues --    0.13720   0.14477   0.15286   0.15638   0.16189

 Mulliken charges:
               1
     1  O   -0.495612
     2  O   -0.539425
     3  O   -0.516522
     4  N   -0.676716
     5  N   -0.564311
     6  N   -0.791853
     7  N   -0.677391
     8  N   -0.582636
     9  C   -0.194470
    10  C   -0.196277
    11  C   -0.222872
    12  C   -0.226156
    13  C    0.832134
    14  C    0.692340
    15  C   -0.138132
    16  C   -0.214196
    17  C    0.133408
    18  C    0.209810
    19  C    0.379669
    20  C   -0.202263
    21  C   -0.559831
    22  C    0.663377
    23  H    0.233629
    24  H    0.216871
    25  H    0.214458
    26  H    0.250417
    27  H    0.200112
    28  H    0.173408
    29  H    0.176897
    30  H    0.202889
    31  H    0.275760
    32  H    0.244338
    33  H    0.214070
    34  H    0.246801
    35  H    0.259430
    36  H    0.203716
    37  H    0.218911
    38  H    0.195762
    39  H    0.360457
 Sum of Mulliken charges =   0.00000

 Dipole moment (field-independent basis, Debye):
    X=              4.9964    Y=              4.4552    Z=              0.4480  Tot=              6.7092
 Quadrupole moment (field-independent basis, Debye-Ang):
   XX=           -122.1142   YY=           -127.2047   ZZ=           -126.6075
   XY=             -2.8221   XZ=              6.2702   YZ=             -0.2666

 Normal termination of Gaussian 09 at Mon Jul  6 10:56:55 2020.
