 Gaussian 09, Revision D.01,
 Gaussian 09:  ES64L-G09RevD.01 24-Apr-2013

 -----------------------------------
 # opt b3lyp/3-21g geom=connectivity
 -----------------------------------

 -------------------
 Title Card Required
 -------------------
 Symbolic Z-matrix:
 Charge =  0 Multiplicity = 1

 SCF Done:  E(RB3LYP) =  -1256.00536649     A.U. after   17 cycles
 SCF Done:  E(RB3LYP) =  -1256.01562742     A.U. after   15 cycles
 SCF Done:  E(RB3LYP) =  -1256.01832203     A.U. after   16 cycles
 SCF Done:  E(RB3LYP) =  -1256.01908474     A.U. after   13 cycles
 SCF Done:  E(RB3LYP) =  -1256.01956931     A.U. after   13 cycles
 SCF Done:  E(RB3LYP) =  -1256.02005123     A.U. after   13 cycles
 SCF Done:  E(RB3LYP) =  -1256.02010968     A.U. after   13 cycles
 SCF Done:  E(RB3LYP) =  -1256.02034576     A.U. after   12 cycles
 SCF Done:  E(RB3LYP) =  -1256.02044030     A.U. after   12 cycles
 SCF Done:  E(RB3LYP) =  -1256.02048790     A.U. after   12 cycles
 SCF Done:  E(RB3LYP) =  -1256.02131730     A.U. after   12 cycles
 SCF Done:  E(RB3LYP) =  -1256.02165084     A.U. after   13 cycles
 SCF Done:  E(RB3LYP) =  -1256.02186362     A.U. after   13 cycles
 SCF Done:  E(RB3LYP) =  -1256.02201197     A.U. after   13 cycles
 SCF Done:  E(RB3LYP) =  -1256.02205132     A.U. after   12 cycles
 SCF Done:  E(RB3LYP) =  -1256.02207164     A.U. after   11 cycles
 SCF Done:  E(RB3LYP) =  -1256.02208323     A.U. after   11 cycles
 SCF Done:  E(RB3LYP) =  -1256.02208534     A.U. after    9 cycles
 SCF Done:  E(RB3LYP) =  -1256.02208591     A.U. after    8 cycles
 SCF Done:  E(RB3LYP) =  -1256.02208606     A.U. after    7 cycles
 Optimization completed.
    -- Stationary point found.

                         Standard orientation:
 ---------------------------------------------------------------------
 Center     Atomic      Atomic             Coordinates (Angstroms)
 Number     Number       Type             X           Y           Z
 ---------------------------------------------------------------------
      1          9           0        1.682285   -2.848305    0.092718
      2          1           0        5.081271    1.349191   -1.748917
      3          1           0        4.594788   -0.362945   -1.771984
      4          1           0        3.264849    1.812547   -0.073801
      5          1           0        2.635872    1.136683   -1.585581
      6          1           0        4.395583    0.546998    1.832385
      7          1           0        5.465925   -0.865772    1.790487
      8          1           0        3.935640   -1.951667    0.111549
      9          1           0        3.081458   -1.550782    1.609016
     10          6           0        6.755436   -0.410920   -0.313874
     11          1           0        7.305235    0.164496   -1.067403
     12          1           0        6.564927   -1.419447   -0.729700
     13          1           0        7.392737   -0.509610    0.569996
     14          7           0        2.634688   -0.241934    0.011399
     15          6           0        3.588554   -1.125158    0.740092
     16          6           0        4.777084   -0.258747    1.194614
     17          6           0        3.237385    0.917162   -0.701069
     18          6           0        4.660082    0.540985   -1.138715
     19          7           0        5.528951    0.324235    0.046019
     20          6           0       -0.195287    2.776044   -0.711372
     21          1           0        0.239767    3.771649   -0.622224
     22          1           0       -0.307934    2.496793   -1.765246
     23          8           0        0.751666    1.869998   -0.044202
     24          8           0       -3.308762   -2.643351    0.007122
     25          8           0       -5.822413   -1.601785   -0.132048
     26          8           0       -6.042272    0.668282   -0.204762
     27          7           0       -2.010896    1.286260   -0.090804
     28          6           0        0.308429    0.533643   -0.038604
     29          6           0       -1.065809    0.245740   -0.054756
     30          6           0       -1.518359   -1.081484   -0.010556
     31          6           0       -1.546618    2.699715    0.010299
     32          6           0       -3.333459    0.987458   -0.116209
     33          6           0       -3.843677   -0.282419   -0.102744
     34          6           0       -2.958318   -1.447877   -0.032690
     35          6           0       -0.570290   -2.105190    0.056995
     36          6           0        1.276577   -0.490587    0.008899
     37          6           0       -1.414090    3.128950    1.481228
     38          6           0        0.768402   -1.815287    0.061520
     39          6           0       -5.311106   -0.329754   -0.151524
     40          1           0       -2.278974    3.319805   -0.515923
     41          1           0       -4.029040    1.818694   -0.151769
     42          1           0       -0.922993   -3.127088    0.081352
     43          1           0       -1.170503    4.195686    1.536197
     44          1           0       -2.348997    2.952082    2.019837
     45          1           0       -0.608917    2.558959    1.950091
     46          1           0       -6.815839   -1.520234   -0.167204
 ---------------------------------------------------------------------

 The electronic state is 1-A.
 Alpha  occ. eigenvalues --  -24.57005 -19.09305 -19.06560 -19.01215 -18.99312
 Alpha  occ. eigenvalues --  -14.34081 -14.27803 -14.24377 -10.24851 -10.21282
 Alpha  occ. eigenvalues --  -10.21257 -10.20882 -10.20474 -10.19666 -10.19563
 Alpha  occ. eigenvalues --  -10.19514 -10.19174 -10.16112 -10.15907 -10.15243
 Alpha  occ. eigenvalues --  -10.15201 -10.14296 -10.14055 -10.13903 -10.13760
 Alpha  occ. eigenvalues --  -10.13200  -1.20453  -1.08823  -1.08286  -1.01460
 Alpha  occ. eigenvalues --   -1.00657  -0.99871  -0.95882  -0.91401  -0.87368
 Alpha  occ. eigenvalues --   -0.83688  -0.80090  -0.78456  -0.77329  -0.75510
 Alpha  occ. eigenvalues --   -0.73211  -0.71920  -0.67937  -0.67248  -0.66100
 Alpha  occ. eigenvalues --   -0.65692  -0.63479  -0.60949  -0.58642  -0.57597
 Alpha  occ. eigenvalues --   -0.55659  -0.54650  -0.53963  -0.51996  -0.51495
 Alpha  occ. eigenvalues --   -0.51095  -0.50651  -0.48896  -0.48201  -0.47279
 Alpha  occ. eigenvalues --   -0.46966  -0.46235  -0.45767  -0.45045  -0.44494
 Alpha  occ. eigenvalues --   -0.44176  -0.43091  -0.42661  -0.42584  -0.42025
 Alpha  occ. eigenvalues --   -0.41539  -0.41077  -0.40830  -0.40241  -0.39638
 Alpha  occ. eigenvalues --   -0.39289  -0.38469  -0.38023  -0.37078  -0.36790
 Alpha  occ. eigenvalues --   -0.36428  -0.36107  -0.35472  -0.35179  -0.34987
 Alpha  occ. eigenvalues --   -0.33653  -0.31261  -0.29165  -0.28271  -0.25749
 Alpha  occ. eigenvalues --   -0.25381  -0.22024  -0.21262  -0.19919  -0.19181
 Alpha virt. eigenvalues --   -0.03998  -0.02867   0.01721   0.04560   0.05970
 Alpha virt. eigenvalues --    0.08615   0.09565   0.10239   0.11458   0.12256
 Alpha virt. eigenvalues --    0.12617   0.12857   0.13718   0.14276   0.14580

 Mulliken charges:
               1
     1  F   -0.292936
     2  H    0.201188
     3  H    0.177731
     4  H    0.218191
     5  H    0.204722
     6  H    0.211612
     7  H    0.199274
     8  H    0.210165
     9  H    0.211228
    10  C   -0.387821
    11  H    0.198268
    12  H    0.161240
    13  H    0.196321
    14  N   -0.706622
    15  C   -0.202088
    16  C   -0.224327
    17  C   -0.190137
    18  C   -0.207851
    19  N   -0.497149
    20  C   -0.139862
    21  H    0.226920
    22  H    0.221099
    23  O   -0.539251
    24  O   -0.497645
    25  O   -0.540063
    26  O   -0.521048
    27  N   -0.824441
    28  C    0.285242
    29  C    0.363355
    30  C   -0.071423
    31  C   -0.100848
    32  C    0.214092
    33  C   -0.211762
    34  C    0.404930
    35  C   -0.206951
    36  C    0.318495
    37  C   -0.528768
    38  C    0.289228
    39  C    0.662274
    40  H    0.228393
    41  H    0.253623
    42  H    0.236985
    43  H    0.195848
    44  H    0.212966
    45  H    0.228677
    46  H    0.358926
 Sum of Mulliken charges =   0.00000

 Dipole moment (field-independent basis, Debye):
    X=              4.0754    Y=              5.5309    Z=             -0.5856  Tot=              6.8951
 Quadrupole moment (field-independent basis, Debye-Ang):
   XX=           -155.0422   YY=           -148.7500   ZZ=           -147.2808
   XY=            -12.8163   XZ=             -1.4190   YZ=             -3.8668

 Normal termination of Gaussian 09 at Mon Jul  6 12:36:10 2020.
