 Gaussian 09, Revision D.01,
 Gaussian 09:  ES64L-G09RevD.01 24-Apr-2013

 -----------------------------------
 # opt b3lyp/3-21g geom=connectivity
 -----------------------------------

 -------------------
 Title Card Required
 -------------------
 Symbolic Z-matrix:
 Charge =  0 Multiplicity = 1

 SCF Done:  E(RB3LYP) =  -747.766584986     A.U. after   17 cycles
 SCF Done:  E(RB3LYP) =  -747.795624081     A.U. after   15 cycles
 SCF Done:  E(RB3LYP) =  -747.804743401     A.U. after   15 cycles
 SCF Done:  E(RB3LYP) =  -747.801159743     A.U. after   17 cycles
 SCF Done:  E(RB3LYP) =  -747.805533481     A.U. after   13 cycles
 SCF Done:  E(RB3LYP) =  -747.806222656     A.U. after   14 cycles
 SCF Done:  E(RB3LYP) =  -747.806241395     A.U. after   14 cycles
 SCF Done:  E(RB3LYP) =  -747.806443626     A.U. after   13 cycles
 SCF Done:  E(RB3LYP) =  -747.806461584     A.U. after   12 cycles
 SCF Done:  E(RB3LYP) =  -747.806463853     A.U. after   10 cycles
 SCF Done:  E(RB3LYP) =  -747.806464386     A.U. after    9 cycles
 SCF Done:  E(RB3LYP) =  -747.806464527     A.U. after    8 cycles
 SCF Done:  E(RB3LYP) =  -747.806464619     A.U. after    8 cycles
 SCF Done:  E(RB3LYP) =  -747.806464809     A.U. after    9 cycles
 SCF Done:  E(RB3LYP) =  -747.806465056     A.U. after    9 cycles
 SCF Done:  E(RB3LYP) =  -747.806465325     A.U. after   10 cycles
 SCF Done:  E(RB3LYP) =  -747.806465473     A.U. after    9 cycles
 Optimization completed.
    -- Stationary point found.

                         Standard orientation:
 ---------------------------------------------------------------------
 Center     Atomic      Atomic             Coordinates (Angstroms)
 Number     Number       Type             X           Y           Z
 ---------------------------------------------------------------------
      1          8           0        1.619771   -0.715057   -0.000117
      2          8           0        4.923196    0.566011    0.000138
      3          8           0        4.126704   -1.599957    0.000042
      4          8           0       -4.332386    1.327174    0.000013
      5          7           0        3.984489   -0.323385    0.000053
      6          7           0       -1.897725    0.052749   -0.000109
      7          7           0       -3.078540   -0.640923   -0.000073
      8          7           0       -5.387129   -0.727266    0.000163
      9          6           0        0.462499    0.067938   -0.000094
     10          6           0        0.799826    1.406143   -0.000030
     11          6           0        2.674764    0.184789   -0.000002
     12          6           0        2.219964    1.476619   -0.000002
     13          6           0       -0.792911   -0.623862   -0.000129
     14          6           0       -4.288990    0.101116    0.000039
     15          1           0        0.097222    2.220236   -0.000004
     16          1           0        2.845443    2.349875    0.000063
     17          1           0       -0.730958   -1.713844   -0.000108
     18          1           0       -3.071406   -1.663619    0.000088
     19          1           0       -6.296698   -0.285055    0.000088
     20          1           0       -5.340448   -1.737650    0.000334
 ---------------------------------------------------------------------

 The electronic state is 1-A.
 Alpha  occ. eigenvalues --  -19.15178 -19.06091 -19.05837 -19.01313 -14.47846
 Alpha  occ. eigenvalues --  -14.34222 -14.32850 -14.29023 -10.27718 -10.24925
 Alpha  occ. eigenvalues --  -10.22886 -10.19823 -10.17178 -10.16040  -1.19605
 Alpha  occ. eigenvalues --   -1.14981  -1.07974  -1.03001  -1.02703  -0.93347
 Alpha  occ. eigenvalues --   -0.87392  -0.85163  -0.82611  -0.74388  -0.66929
 Alpha  occ. eigenvalues --   -0.64506  -0.62673  -0.58826  -0.58250  -0.56167
 Alpha  occ. eigenvalues --   -0.54048  -0.52703  -0.52403  -0.49481  -0.48210
 Alpha  occ. eigenvalues --   -0.47411  -0.46017  -0.44610  -0.44152  -0.41135
 Alpha  occ. eigenvalues --   -0.40414  -0.39619  -0.31616  -0.30426  -0.30241
 Alpha  occ. eigenvalues --   -0.28458  -0.27977  -0.27368  -0.27361  -0.26967
 Alpha  occ. eigenvalues --   -0.23274
 Alpha virt. eigenvalues --   -0.10065  -0.04715   0.03945   0.05218   0.05896
 Alpha virt. eigenvalues --    0.08027   0.08613   0.11185   0.12217   0.13162
 Alpha virt. eigenvalues --    0.14416   0.16974   0.17927   0.19473   0.22640

 Mulliken charges:
               1
     1  O   -0.513354
     2  O   -0.305781
     3  O   -0.287660
     4  O   -0.487401
     5  N   -0.004607
     6  N   -0.248645
     7  N   -0.558844
     8  N   -0.776433
     9  C    0.306468
    10  C   -0.205471
    11  C    0.654618
    12  C   -0.167867
    13  C    0.050729
    14  C    0.914467
    15  H    0.233515
    16  H    0.238796
    17  H    0.206342
    18  H    0.308802
    19  H    0.334696
    20  H    0.307632
 Sum of Mulliken charges =   0.00000

 Dipole moment (field-independent basis, Debye):
    X=             -6.7942    Y=             -2.8718    Z=              0.0005  Tot=              7.3762
 Quadrupole moment (field-independent basis, Debye-Ang):
   XX=            -81.4749   YY=            -74.6143   ZZ=            -79.4655
   XY=             27.6172   XZ=             -0.0028   YZ=             -0.0010

 Normal termination of Gaussian 09 at Mon Jul  6 10:47:24 2020.
