 Gaussian 09, Revision D.01,
 Gaussian 09:  ES64L-G09RevD.01 24-Apr-2013

 -----------------------------------
 # opt b3lyp/3-21g geom=connectivity
 -----------------------------------

 -------------------
 Title Card Required
 -------------------
 Symbolic Z-matrix:
 Charge =  0 Multiplicity = 1

 SCF Done:  E(RB3LYP) =  -1242.02232860     A.U. after   18 cycles
 SCF Done:  E(RB3LYP) =  -1242.02973601     A.U. after   14 cycles
 SCF Done:  E(RB3LYP) =  -1242.03262477     A.U. after   14 cycles
 SCF Done:  E(RB3LYP) =  -1242.03402167     A.U. after   14 cycles
 SCF Done:  E(RB3LYP) =  -1242.03489221     A.U. after   13 cycles
 SCF Done:  E(RB3LYP) =  -1242.03481076     A.U. after   14 cycles
 SCF Done:  E(RB3LYP) =  -1242.03527031     A.U. after   13 cycles
 SCF Done:  E(RB3LYP) =  -1242.03532753     A.U. after   13 cycles
 SCF Done:  E(RB3LYP) =  -1242.03545369     A.U. after   12 cycles
 SCF Done:  E(RB3LYP) =  -1242.03558611     A.U. after   13 cycles
 SCF Done:  E(RB3LYP) =  -1242.03301942     A.U. after   14 cycles
 SCF Done:  E(RB3LYP) =  -1242.03597592     A.U. after   11 cycles
 SCF Done:  E(RB3LYP) =  -1242.03555316     A.U. after   16 cycles
 SCF Done:  E(RB3LYP) =  -1242.03650114     A.U. after   11 cycles
 SCF Done:  E(RB3LYP) =  -1242.03682684     A.U. after   13 cycles
 SCF Done:  E(RB3LYP) =  -1242.03698832     A.U. after   13 cycles
 SCF Done:  E(RB3LYP) =  -1242.03700679     A.U. after   11 cycles
 SCF Done:  E(RB3LYP) =  -1242.03701130     A.U. after    9 cycles
 SCF Done:  E(RB3LYP) =  -1242.03701257     A.U. after    9 cycles
 SCF Done:  E(RB3LYP) =  -1242.03701291     A.U. after    7 cycles
 Optimization completed.
    -- Stationary point found.

                         Standard orientation:
 ---------------------------------------------------------------------
 Center     Atomic      Atomic             Coordinates (Angstroms)
 Number     Number       Type             X           Y           Z
 ---------------------------------------------------------------------
      1          9           0        0.999834    1.822370   -0.063897
      2          9           0        1.673189   -2.829022   -0.934366
      3          8           0       -3.196936   -2.524331   -0.183250
      4          8           0       -5.672561   -1.485028    0.311522
      5          8           0       -5.832070    0.757081    0.707917
      6          7           0        2.740130   -0.272617   -0.737822
      7          7           0        4.978740    0.898778    0.677843
      8          7           0       -1.818879    1.368818    0.251438
      9          6           0        4.429279   -0.427928    1.071156
     10          6           0        3.766297   -1.156183   -0.123902
     11          6           0        3.309465    1.012080   -1.207455
     12          6           0        3.984035    1.747538   -0.025668
     13          6           0        1.387584   -0.484993   -0.527053
     14          6           0        5.551276   -1.277465    1.684480
     15          6           0        0.476883    0.536166   -0.216514
     16          6           0       -0.904819    0.340580   -0.056454
     17          6           0        0.826906   -1.783306   -0.640460
     18          6           0       -1.395233   -0.974705   -0.187892
     19          6           0       -0.506981   -2.017895   -0.466195
     20          6           0       -1.436353    2.811790    0.415357
     21          6           0       -2.832984   -1.339679   -0.049315
     22          6           0       -3.135649    1.054244    0.380443
     23          6           0       -3.679166   -0.192412    0.247957
     24          6           0       -1.226762    3.511330   -0.937496
     25          6           0       -5.134808   -0.231307    0.445797
     26          1           0        3.651155   -0.239817    1.821449
     27          1           0        4.534862   -1.372419   -0.879962
     28          1           0        3.304963   -2.092575    0.179910
     29          1           0        2.529308    1.618905   -1.661970
     30          1           0        4.064291    0.772253   -1.969176
     31          1           0        4.482262    2.659751   -0.371037
     32          1           0        3.195539    2.019293    0.680780
     33          1           0        5.820974    0.771190    0.100910
     34          1           0        6.027969   -0.719913    2.495409
     35          1           0        5.158412   -2.221315    2.076758
     36          1           0        6.311074   -1.508483    0.926576
     37          1           0       -0.923382   -3.011174   -0.566736
     38          1           0       -2.260805    3.275894    0.960655
     39          1           0       -0.538117    2.866094    1.024322
     40          1           0       -3.809178    1.869997    0.615499
     41          1           0       -0.353489    3.089043   -1.435767
     42          1           0       -2.108945    3.392923   -1.573060
     43          1           0       -1.050272    4.579937   -0.773007
     44          1           0       -6.655037   -1.403480    0.462384
 ---------------------------------------------------------------------

 The electronic state is 1-A.
 Alpha  occ. eigenvalues --  -24.60637 -24.58221 -19.06853 -19.01535 -18.99879
 Alpha  occ. eigenvalues --  -14.34556 -14.28885 -14.23957 -10.25160 -10.23506
 Alpha  occ. eigenvalues --  -10.22347 -10.21063 -10.20570 -10.20076 -10.19828
 Alpha  occ. eigenvalues --  -10.19024 -10.16517 -10.16109 -10.15977 -10.15186
 Alpha  occ. eigenvalues --  -10.15090 -10.14169 -10.14051 -10.13401 -10.12037
 Alpha  occ. eigenvalues --   -1.23348  -1.21638  -1.09123  -1.01930  -1.00967
 Alpha  occ. eigenvalues --   -1.00192  -0.96956  -0.90897  -0.88004  -0.82841
 Alpha  occ. eigenvalues --   -0.79567  -0.79154  -0.78193  -0.76283  -0.72055
 Alpha  occ. eigenvalues --   -0.70245  -0.68040  -0.67051  -0.65861  -0.62898
 Alpha  occ. eigenvalues --   -0.62039  -0.61263  -0.59884  -0.56833  -0.56078
 Alpha  occ. eigenvalues --   -0.54642  -0.52369  -0.52123  -0.50939  -0.49320
 Alpha  occ. eigenvalues --   -0.48156  -0.47822  -0.47782  -0.47135  -0.46924
 Alpha  occ. eigenvalues --   -0.46130  -0.45782  -0.45390  -0.45158  -0.44677
 Alpha  occ. eigenvalues --   -0.44368  -0.43176  -0.42468  -0.42107  -0.41074
 Alpha  occ. eigenvalues --   -0.40452  -0.40025  -0.39549  -0.39280  -0.38117
 Alpha  occ. eigenvalues --   -0.37797  -0.37445  -0.37186  -0.36203  -0.36068
 Alpha  occ. eigenvalues --   -0.35619  -0.35444  -0.34985  -0.34152  -0.30291
 Alpha  occ. eigenvalues --   -0.28883  -0.26814  -0.26041  -0.23241  -0.22637
 Alpha  occ. eigenvalues --   -0.21941  -0.19205
 Alpha virt. eigenvalues --   -0.04444  -0.03709   0.00818   0.03861   0.05078
 Alpha virt. eigenvalues --    0.09064   0.09781   0.10835   0.11450   0.11901
 Alpha virt. eigenvalues --    0.12190   0.12316   0.13814   0.14705   0.15293

 Mulliken charges:
               1
     1  F   -0.279292
     2  F   -0.284566
     3  O   -0.496587
     4  O   -0.540450
     5  O   -0.517992
     6  N   -0.668964
     7  N   -0.541935
     8  N   -0.823030
     9  C   -0.078637
    10  C   -0.209738
    11  C   -0.215065
    12  C   -0.237567
    13  C    0.289941
    14  C   -0.549205
    15  C    0.269343
    16  C    0.345951
    17  C    0.296654
    18  C   -0.076470
    19  C   -0.198381
    20  C   -0.226597
    21  C    0.410218
    22  C    0.212573
    23  C   -0.202888
    24  C   -0.562844
    25  C    0.664147
    26  H    0.209161
    27  H    0.192320
    28  H    0.221712
    29  H    0.209321
    30  H    0.198711
    31  H    0.192918
    32  H    0.210599
    33  H    0.259901
    34  H    0.213538
    35  H    0.193477
    36  H    0.180760
    37  H    0.245060
    38  H    0.219245
    39  H    0.237511
    40  H    0.259193
    41  H    0.209767
    42  H    0.207314
    43  H    0.200493
    44  H    0.360381
 Sum of Mulliken charges =   0.00000

 Dipole moment (field-independent basis, Debye):
    X=              4.4395    Y=              4.1479    Z=             -0.4580  Tot=              6.0929
 Quadrupole moment (field-independent basis, Debye-Ang):
   XX=           -144.3125   YY=           -145.2540   ZZ=           -145.8753
   XY=             -8.6903   XZ=             -5.1973   YZ=             -5.1892

 Normal termination of Gaussian 09 at Tue Aug 18 09:51:20 2020.
