 Gaussian 09, Revision D.01,
 Gaussian 09:  ES64L-G09RevD.01 24-Apr-2013

 -----------------------------------
 # opt b3lyp/3-21g geom=connectivity
 -----------------------------------

 -------------------
 Title Card Required
 -------------------
 Symbolic Z-matrix:
 Charge =  0 Multiplicity = 1

 SCF Done:  E(RB3LYP) =  -844.449534157     A.U. after   17 cycles
 SCF Done:  E(RB3LYP) =  -844.493610526     A.U. after   15 cycles
 SCF Done:  E(RB3LYP) =  -844.546690253     A.U. after   17 cycles
 SCF Done:  E(RB3LYP) =  -844.544579514     A.U. after   17 cycles
 SCF Done:  E(RB3LYP) =  -844.551343892     A.U. after   12 cycles
 SCF Done:  E(RB3LYP) =  -844.553826213     A.U. after   17 cycles
 SCF Done:  E(RB3LYP) =  -844.553736700     A.U. after   15 cycles
 SCF Done:  E(RB3LYP) =  -844.554152777     A.U. after   11 cycles
 SCF Done:  E(RB3LYP) =  -844.553310560     A.U. after   15 cycles
 SCF Done:  E(RB3LYP) =  -844.554283356     A.U. after   11 cycles
 SCF Done:  E(RB3LYP) =  -844.554553047     A.U. after   14 cycles
 SCF Done:  E(RB3LYP) =  -844.548256008     A.U. after   16 cycles
 SCF Done:  E(RB3LYP) =  -844.554627109     A.U. after   11 cycles
 SCF Done:  E(RB3LYP) =  -844.554722194     A.U. after   14 cycles
 SCF Done:  E(RB3LYP) =  -844.551562380     A.U. after   17 cycles
 SCF Done:  E(RB3LYP) =  -844.554888838     A.U. after   12 cycles
 SCF Done:  E(RB3LYP) =  -844.554906593     A.U. after   13 cycles
 SCF Done:  E(RB3LYP) =  -844.554924270     A.U. after   12 cycles
 SCF Done:  E(RB3LYP) =  -844.554925206     A.U. after   10 cycles
 SCF Done:  E(RB3LYP) =  -844.554925391     A.U. after    9 cycles
 Optimization completed.
    -- Stationary point found.

                         Standard orientation:
 ---------------------------------------------------------------------
 Center     Atomic      Atomic             Coordinates (Angstroms)
 Number     Number       Type             X           Y           Z
 ---------------------------------------------------------------------
      1          8           0        4.560499    0.951298    0.075944
      2          8           0       -1.950936    0.531942   -0.020708
      3          8           0        2.504785    2.014010    0.070454
      4          8           0       -5.407944   -0.238874    0.005172
      5          8           0       -4.302899    1.785517   -0.037498
      6          7           0        2.704357   -0.332620   -0.031747
      7          7           0        1.390192   -0.793096   -0.003334
      8          7           0       -4.350154    0.504062   -0.012426
      9          6           0        3.781728   -1.323636    0.116346
     10          6           0        5.013067   -0.439186   -0.200761
     11          6           0        3.166614    0.988032    0.039728
     12          6           0       -0.924680   -0.417920   -0.005665
     13          6           0        0.421962    0.076102   -0.019860
     14          6           0       -1.465494   -1.687510    0.020495
     15          6           0       -3.128211   -0.194592   -0.002588
     16          6           0       -2.879433   -1.540935    0.022927
     17          1           0        3.801914   -1.716818    1.137603
     18          1           0        3.653175   -2.138299   -0.596255
     19          1           0        5.290520   -0.504383   -1.255067
     20          1           0        5.870127   -0.643642    0.437331
     21          1           0        0.563178    1.148990   -0.038168
     22          1           0       -0.898658   -2.600826    0.035812
     23          1           0       -3.632376   -2.306725    0.040650
 ---------------------------------------------------------------------

 The electronic state is 1-A.
 Alpha  occ. eigenvalues --  -19.15533 -19.10516 -19.06533 -19.06218 -19.05166
 Alpha  occ. eigenvalues --  -14.48216 -14.35819 -14.32917 -10.30715 -10.25384
 Alpha  occ. eigenvalues --  -10.23074 -10.22418 -10.20845 -10.19605 -10.17553
 Alpha  occ. eigenvalues --  -10.16630  -1.20021  -1.15359  -1.13721  -1.05823
 Alpha  occ. eigenvalues --   -1.04019  -1.03148  -0.90556  -0.85544  -0.83565
 Alpha  occ. eigenvalues --   -0.79551  -0.75117  -0.68813  -0.67835  -0.65044
 Alpha  occ. eigenvalues --   -0.58832  -0.58196  -0.55659  -0.54656  -0.54303
 Alpha  occ. eigenvalues --   -0.53052  -0.52232  -0.50396  -0.48605  -0.47353
 Alpha  occ. eigenvalues --   -0.46184  -0.45650  -0.45167  -0.44968  -0.44270
 Alpha  occ. eigenvalues --   -0.43487  -0.40657  -0.39026  -0.38005  -0.33158
 Alpha  occ. eigenvalues --   -0.31991  -0.30797  -0.30253  -0.28808  -0.28319
 Alpha  occ. eigenvalues --   -0.27959  -0.27718  -0.23917
 Alpha virt. eigenvalues --   -0.10535  -0.05511   0.02121   0.04175   0.05734
 Alpha virt. eigenvalues --    0.08116   0.08737   0.09589   0.11407   0.11451
 Alpha virt. eigenvalues --    0.13629   0.14689   0.14989   0.16022   0.17337

 Mulliken charges:
               1
     1  O   -0.490602
     2  O   -0.505574
     3  O   -0.482483
     4  O   -0.303525
     5  O   -0.279890
     6  N   -0.523700
     7  N   -0.304897
     8  N    0.000173
     9  C   -0.182573
    10  C   -0.184580
    11  C    0.943390
    12  C    0.312651
    13  C    0.024876
    14  C   -0.205108
    15  C    0.658377
    16  C   -0.168617
    17  H    0.237348
    18  H    0.243516
    19  H    0.235129
    20  H    0.237221
    21  H    0.279239
    22  H    0.221008
    23  H    0.238617
 Sum of Mulliken charges =   0.00000

 Dipole moment (field-independent basis, Debye):
    X=              6.4212    Y=             -6.3813    Z=             -0.2067  Tot=              9.0551
 Quadrupole moment (field-independent basis, Debye-Ang):
   XX=            -95.2645   YY=            -93.6769   ZZ=            -88.0752
   XY=             -6.2772   XZ=             -1.4349   YZ=             -0.4236

 Normal termination of Gaussian 09 at Mon Jul  6 10:48:06 2020.
