 Gaussian 09, Revision D.01,
 Gaussian 09:  ES64L-G09RevD.01 24-Apr-2013

 -----------------------------------
 # opt b3lyp/3-21g geom=connectivity
 -----------------------------------

 -------------------
 Title Card Required
 -------------------
 Symbolic Z-matrix:
 Charge =  0 Multiplicity = 1

 SCF Done:  E(RB3LYP) =  -1295.05604840     A.U. after   17 cycles
 SCF Done:  E(RB3LYP) =  -1295.06703577     A.U. after   15 cycles
 SCF Done:  E(RB3LYP) =  -1295.06970696     A.U. after   15 cycles
 SCF Done:  E(RB3LYP) =  -1295.07068321     A.U. after   15 cycles
 SCF Done:  E(RB3LYP) =  -1295.07164727     A.U. after   13 cycles
 SCF Done:  E(RB3LYP) =  -1295.07185462     A.U. after   14 cycles
 SCF Done:  E(RB3LYP) =  -1295.07209460     A.U. after   13 cycles
 SCF Done:  E(RB3LYP) =  -1295.07216962     A.U. after   13 cycles
 SCF Done:  E(RB3LYP) =  -1295.07237232     A.U. after   12 cycles
 SCF Done:  E(RB3LYP) =  -1295.07250025     A.U. after   13 cycles
 SCF Done:  E(RB3LYP) =  -1295.06976550     A.U. after   16 cycles
 SCF Done:  E(RB3LYP) =  -1295.07348271     A.U. after   12 cycles
 SCF Done:  E(RB3LYP) =  -1295.07431131     A.U. after   13 cycles
 SCF Done:  E(RB3LYP) =  -1295.07456666     A.U. after   14 cycles
 SCF Done:  E(RB3LYP) =  -1295.07464883     A.U. after   13 cycles
 SCF Done:  E(RB3LYP) =  -1295.07468292     A.U. after   12 cycles
 SCF Done:  E(RB3LYP) =  -1295.07468727     A.U. after   10 cycles
 SCF Done:  E(RB3LYP) =  -1295.07468900     A.U. after    9 cycles
 SCF Done:  E(RB3LYP) =  -1295.07468922     A.U. after    8 cycles
 SCF Done:  E(RB3LYP) =  -1295.07468932     A.U. after    7 cycles
 Optimization completed.
    -- Stationary point found.

                         Standard orientation:
 ---------------------------------------------------------------------
 Center     Atomic      Atomic             Coordinates (Angstroms)
 Number     Number       Type             X           Y           Z
 ---------------------------------------------------------------------
      1          6           0        1.422963    2.592709    0.211320
      2          6           0        0.803803    3.158993   -1.042569
      3          6           0        2.208833    3.590147   -0.633644
      4          1           0        2.350838    4.579779   -0.217228
      5          1           0        3.029047    3.218439   -1.234667
      6          1           0        0.725764    2.490676   -1.891022
      7          1           0       -0.022636    3.844868   -0.911740
      8          1           0        1.031163    2.938336    1.157277
      9          7           0       -2.697634   -0.655157    0.094720
     10          6           0       -3.600811   -1.815198    0.329184
     11          6           0       -4.894698   -1.293873    0.966606
     12          7           0       -5.511680   -0.320534    0.038580
     13          6           0       -3.323617    0.389924   -0.772416
     14          6           0       -4.651565    0.869004   -0.162437
     15          1           0       -6.453055   -0.049291    0.341609
     16          1           0       -3.107579   -2.518763    0.999085
     17          1           0       -3.847632   -2.322332   -0.610294
     18          1           0       -3.533761   -0.028658   -1.767615
     19          1           0       -2.631402    1.226924   -0.840286
     20          1           0       -4.416844    1.377342    0.791471
     21          1           0       -5.585779   -2.130507    1.112431
     22          1           0       -4.645466   -0.858598    1.952081
     23          8           0        3.370173   -2.624072   -0.405107
     24          8           0        5.823319   -1.500557   -0.012824
     25          8           0        5.924664    0.750210    0.349128
     26          7           0        1.861332    1.191225    0.210527
     27          6           0       -0.436229    0.242681    0.210891
     28          6           0        0.962425    0.107171    0.080299
     29          6           0        1.501455   -1.173151   -0.159518
     30          6           0        3.198078    0.938429    0.233141
     31          6           0        3.780433   -0.287472    0.070655
     32          6           0        2.964055   -1.465810   -0.188307
     33          6           0        0.642518   -2.255240   -0.351484
     34          6           0       -1.308977   -0.843581   -0.014607
     35          6           0       -0.716602   -2.087826   -0.319170
     36          6           0        5.247091   -0.266622    0.151781
     37          1           0        3.847501    1.790761    0.382679
     38          1           0        6.810336   -1.376336    0.058380
     39          9           0       -1.529181   -3.172619   -0.571930
     40          6           0       -5.355198    1.844371   -1.117048
     41          1           0       -5.591894    1.325248   -2.050822
     42          1           0       -4.717291    2.708433   -1.331652
     43          1           0       -6.290286    2.208973   -0.675504
     44          8           0       -0.979962    1.485117    0.588167
     45          6           0       -1.472487    1.491692    1.994626
     46          1           0       -2.246167    0.732739    2.117831
     47          1           0       -1.884895    2.490277    2.145266
     48          1           0       -0.643447    1.313194    2.687099
     49          1           0        1.087608   -3.220336   -0.552536
 ---------------------------------------------------------------------

 The electronic state is 1-A.
 Alpha  occ. eigenvalues --  -24.57297 -19.07656 -19.06461 -19.01128 -18.99519
 Alpha  occ. eigenvalues --  -14.33902 -14.27762 -14.23741 -10.24745 -10.21492
 Alpha  occ. eigenvalues --  -10.20119 -10.19683 -10.19616 -10.19161 -10.18991
 Alpha  occ. eigenvalues --  -10.18898 -10.18386 -10.15866 -10.15384 -10.15177
 Alpha  occ. eigenvalues --  -10.15125 -10.14765 -10.14362 -10.14218 -10.13550
 Alpha  occ. eigenvalues --  -10.13402 -10.11996  -1.20748  -1.08721  -1.05833
 Alpha  occ. eigenvalues --   -1.01468  -1.00502  -0.99774  -0.95534  -0.90535
 Alpha  occ. eigenvalues --   -0.88562  -0.86252  -0.80936  -0.78858  -0.77604
 Alpha  occ. eigenvalues --   -0.76577  -0.71801  -0.70983  -0.69026  -0.67816
 Alpha  occ. eigenvalues --   -0.65316  -0.64478  -0.62646  -0.62038  -0.60268
 Alpha  occ. eigenvalues --   -0.59213  -0.57366  -0.55681  -0.55219  -0.53896
 Alpha  occ. eigenvalues --   -0.52444  -0.51553  -0.50468  -0.49121  -0.48905
 Alpha  occ. eigenvalues --   -0.47980  -0.47847  -0.47027  -0.46439  -0.46156
 Alpha  occ. eigenvalues --   -0.45187  -0.44797  -0.44442  -0.44181  -0.43745
 Alpha  occ. eigenvalues --   -0.42969  -0.42334  -0.41644  -0.41208  -0.40600
 Alpha  occ. eigenvalues --   -0.40114  -0.38861  -0.38827  -0.38605  -0.37386
 Alpha  occ. eigenvalues --   -0.37328  -0.36918  -0.36680  -0.35892  -0.35198
 Alpha  occ. eigenvalues --   -0.34420  -0.34190  -0.33546  -0.32397  -0.31711
 Alpha  occ. eigenvalues --   -0.29008  -0.28543  -0.27674  -0.25657  -0.25628
 Alpha  occ. eigenvalues --   -0.22182  -0.21719  -0.21376  -0.20373
 Alpha virt. eigenvalues --   -0.04136  -0.03114   0.01003   0.04242   0.06839
 Alpha virt. eigenvalues --    0.09605   0.09717   0.10113   0.11112   0.11362
 Alpha virt. eigenvalues --    0.11665   0.12343   0.12512   0.13882   0.14255

 Mulliken charges:
               1
     1  C   -0.035315
     2  C   -0.363714
     3  C   -0.408414
     4  H    0.217196
     5  H    0.227412
     6  H    0.225644
     7  H    0.214129
     8  H    0.226695
     9  N   -0.657059
    10  C   -0.185594
    11  C   -0.229510
    12  N   -0.559772
    13  C   -0.183274
    14  C   -0.080115
    15  H    0.269908
    16  H    0.208489
    17  H    0.209609
    18  H    0.197383
    19  H    0.229689
    20  H    0.169274
    21  H    0.199281
    22  H    0.166100
    23  O   -0.496871
    24  O   -0.540936
    25  O   -0.519184
    26  N   -0.843879
    27  C    0.277524
    28  C    0.361460
    29  C   -0.077206
    30  C    0.213370
    31  C   -0.206388
    32  C    0.408407
    33  C   -0.199152
    34  C    0.277444
    35  C    0.278281
    36  C    0.662136
    37  H    0.264713
    38  H    0.358789
    39  F   -0.290223
    40  C   -0.545431
    41  H    0.207076
    42  H    0.188396
    43  H    0.184915
    44  O   -0.528502
    45  C   -0.365481
    46  H    0.226869
    47  H    0.206795
    48  H    0.198638
    49  H    0.240397
 Sum of Mulliken charges =   0.00000

 Dipole moment (field-independent basis, Debye):
    X=             -5.5705    Y=              5.1564    Z=              2.1671  Tot=              7.8940
 Quadrupole moment (field-independent basis, Debye-Ang):
   XX=           -155.6482   YY=           -158.0469   ZZ=           -153.4540
   XY=              3.1423   XZ=             -7.0084   YZ=             -1.6588

 Normal termination of Gaussian 09 at Mon Jul  6 12:18:28 2020.
