 Gaussian 09, Revision D.01,
 Gaussian 09:  ES64L-G09RevD.01 24-Apr-2013

 -----------------------------------------------------
 #opt M06/lanl2dz integral=ultrafine geom=connectivity
 -----------------------------------------------------

 -------------------
 Title Card Required
 -------------------
 Symbolic Z-matrix:
 Charge =  0 Multiplicity = 1

 SCF Done:  E(RM06) =  -1499.45325050     A.U. after   18 cycles
 SCF Done:  E(RM06) =  -1499.45654491     A.U. after   16 cycles
 SCF Done:  E(RM06) =  -1499.45813012     A.U. after   14 cycles
 SCF Done:  E(RM06) =  -1499.45823925     A.U. after   14 cycles
 SCF Done:  E(RM06) =  -1499.45851506     A.U. after   14 cycles
 SCF Done:  E(RM06) =  -1499.45854894     A.U. after   12 cycles
 SCF Done:  E(RM06) =  -1499.45859564     A.U. after   12 cycles
 SCF Done:  E(RM06) =  -1499.45861062     A.U. after   13 cycles
 SCF Done:  E(RM06) =  -1499.45862990     A.U. after   11 cycles
 SCF Done:  E(RM06) =  -1499.45864403     A.U. after   13 cycles
 SCF Done:  E(RM06) =  -1499.45865025     A.U. after   12 cycles
 SCF Done:  E(RM06) =  -1499.45865636     A.U. after   12 cycles
 SCF Done:  E(RM06) =  -1499.45865703     A.U. after    9 cycles
 SCF Done:  E(RM06) =  -1499.45865743     A.U. after    8 cycles
 SCF Done:  E(RM06) =  -1499.45865759     A.U. after    8 cycles
 SCF Done:  E(RM06) =  -1499.45865758     A.U. after    8 cycles
 SCF Done:  E(RM06) =  -1499.45865757     A.U. after    8 cycles
 SCF Done:  E(RM06) =  -1499.45865755     A.U. after    8 cycles
 SCF Done:  E(RM06) =  -1499.45865757     A.U. after    7 cycles
 Optimization completed.
    -- Stationary point found.

                         Standard orientation:
 ---------------------------------------------------------------------
 Center     Atomic      Atomic             Coordinates (Angstroms)
 Number     Number       Type             X           Y           Z
 ---------------------------------------------------------------------
      1          7           0       -3.034590   -0.679703    0.784113
      2          6           0       -3.345806    0.729631    1.052381
      3          6           0       -3.789821    1.439412   -0.234535
      4          7           0       -4.931235    0.702698   -0.778231
      5          6           0       -4.202655   -1.391677    0.232309
      6          6           0       -4.661743   -0.712028   -1.068058
      7          1           0       -5.435181    1.183813   -1.519219
      8          1           0       -2.493631    1.226775    1.525668
      9          1           0       -4.185959    0.752719    1.758682
     10          1           0       -5.025101   -1.336174    0.959719
     11          1           0       -3.966384   -2.440566    0.051147
     12          1           0       -3.835058   -0.822617   -1.804795
     13          1           0       -4.093719    2.467015   -0.007597
     14          1           0       -2.933479    1.480947   -0.940451
     15          8           0        2.587459   -3.714627   -0.050101
     16          8           0        5.215890   -2.910498   -0.401280
     17          8           0        5.579282   -0.704877   -0.812150
     18          7           0        1.678057    0.328545   -0.078724
     19          6           0       -0.683600   -0.179473    0.313960
     20          6           0        0.640843   -0.607925    0.148615
     21          6           0        0.976833   -1.976617    0.161590
     22          6           0        2.958698   -0.102327   -0.287289
     23          6           0        3.345575   -1.421772   -0.285211
     24          6           0        2.352726   -2.484331   -0.054785
     25          6           0       -0.060809   -2.898709    0.391313
     26          6           0       -1.733090   -1.092689    0.547695
     27          6           0       -5.922661   -1.378069   -1.603843
     28          6           0       -1.348753   -2.464503    0.589978
     29          6           0        4.786552   -1.624110   -0.526286
     30          1           0        3.708997    0.666428   -0.458757
     31          1           0        0.184411   -3.956239    0.435729
     32          1           0       -6.726609   -1.297201   -0.862078
     33          1           0       -6.262917   -0.897339   -2.529528
     34          1           0       -5.746164   -2.437626   -1.819460
     35          1           0        6.182106   -2.956134   -0.574699
     36          6           0        0.969026    4.473177   -0.146144
     37          6           0        0.918930    3.817053    1.082267
     38          6           0        1.153485    2.446369    1.072142
     39          6           0        1.239168    3.823808   -1.349673
     40          6           0        1.458712    2.442509   -1.317204
     41          6           0        1.417175    1.736759   -0.107226
     42          1           0        1.270851    4.388828   -2.273615
     43          1           0        0.721791    4.348860    2.005643
     44          9           0       -2.312734   -3.421953    0.897775
     45          1           0       -0.912537    0.877676    0.234465
     46          9           0        0.742567    5.832908   -0.164625
     47          1           0        1.663920    1.892528   -2.230689
     48          9           0        1.128530    1.765783    2.266407
 ---------------------------------------------------------------------

 The electronic state is 1-A.
 Alpha  occ. eigenvalues --  -24.83926 -24.83292 -24.80109 -19.26322 -19.21669
 Alpha  occ. eigenvalues --  -19.19072 -14.49889 -14.43580 -14.39550 -10.40605
 Alpha  occ. eigenvalues --  -10.40396 -10.40026 -10.35806 -10.35263 -10.34548
 Alpha  occ. eigenvalues --  -10.34199 -10.33852 -10.33751 -10.32380 -10.31806
 Alpha  occ. eigenvalues --  -10.31417 -10.29802 -10.29395 -10.29275 -10.28758
 Alpha  occ. eigenvalues --  -10.28103 -10.27865 -10.27723 -10.27649 -10.24665
 Alpha  occ. eigenvalues --   -1.29612  -1.28894  -1.25315  -1.13727  -1.05104
 Alpha  occ. eigenvalues --   -1.04553  -1.04050  -0.99335  -0.93812  -0.93109
 Alpha  occ. eigenvalues --   -0.89059  -0.85352  -0.82835  -0.81414  -0.81097
 Alpha  occ. eigenvalues --   -0.79812  -0.78573  -0.73913  -0.71835  -0.70558
 Alpha  occ. eigenvalues --   -0.69489  -0.68669  -0.67675  -0.65025  -0.64155
 Alpha  occ. eigenvalues --   -0.63160  -0.61533  -0.60635  -0.59490  -0.58064
 Alpha  occ. eigenvalues --   -0.57243  -0.56825  -0.55174  -0.54155  -0.52879
 Alpha  occ. eigenvalues --   -0.52350  -0.51416  -0.50568  -0.50516  -0.50247
 Alpha  occ. eigenvalues --   -0.49731  -0.49404  -0.49124  -0.48579  -0.48252
 Alpha  occ. eigenvalues --   -0.48033  -0.47479  -0.47188  -0.46605  -0.46004
 Alpha  occ. eigenvalues --   -0.45068  -0.44624  -0.44038  -0.43277  -0.42950
 Alpha  occ. eigenvalues --   -0.42262  -0.42150  -0.41598  -0.41079  -0.40176
 Alpha  occ. eigenvalues --   -0.39765  -0.39409  -0.39282  -0.38720  -0.38194
 Alpha  occ. eigenvalues --   -0.37258  -0.36576  -0.36058  -0.33030  -0.32403
 Alpha  occ. eigenvalues --   -0.31633  -0.31285  -0.29298  -0.29108  -0.25178
 Alpha  occ. eigenvalues --   -0.24803  -0.24394  -0.22051
 Alpha virt. eigenvalues --   -0.06360  -0.06164  -0.05220  -0.04421  -0.00457
 Alpha virt. eigenvalues --    0.02601   0.04619   0.07781   0.08670   0.09239
 Alpha virt. eigenvalues --    0.09479   0.09836   0.10181   0.10710   0.11976

 Mulliken charges:
               1
     1  N   -0.216951
     2  C   -0.399035
     3  C   -0.372177
     4  N   -0.401322
     5  C   -0.401272
     6  C    0.019836
     7  H    0.290864
     8  H    0.212060
     9  H    0.250936
    10  H    0.220506
    11  H    0.255139
    12  H    0.189487
    13  H    0.213742
    14  H    0.186823
    15  O   -0.283942
    16  O   -0.450184
    17  O   -0.352204
    18  N   -0.302939
    19  C   -0.447375
    20  C    0.335634
    21  C    0.200061
    22  C   -0.283154
    23  C    0.098724
    24  C    0.146595
    25  C   -0.570458
    26  C    0.354990
    27  C   -0.709883
    28  C    0.216963
    29  C    0.202969
    30  H    0.293963
    31  H    0.296270
    32  H    0.218090
    33  H    0.204151
    34  H    0.214008
    35  H    0.408210
    36  C    0.442682
    37  C   -0.520334
    38  C    0.329627
    39  C   -0.394456
    40  C   -0.226453
    41  C    0.200039
    42  H    0.264242
    43  H    0.290754
    44  F   -0.262015
    45  H    0.245314
    46  F   -0.245755
    47  H    0.256738
    48  F   -0.219508
 Sum of Mulliken charges =   0.00000

 Dipole moment (field-independent basis, Debye):
    X=             -4.9518    Y=              6.7245    Z=             -2.7269  Tot=              8.7849
 Quadrupole moment (field-independent basis, Debye-Ang):
   XX=           -172.5355   YY=           -190.8383   ZZ=           -166.1225
   XY=              4.6878   XZ=              5.8410   YZ=              1.1887

 Normal termination of Gaussian 09 at Tue Jul 21 15:50:26 2020.
