 Gaussian 09, Revision D.01,
 Gaussian 09:  ES64L-G09RevD.01 24-Apr-2013

 -----------------------------------------------------
 #opt M06/lanl2dz integral=ultrafine geom=connectivity
 -----------------------------------------------------

 -------------------
 Title Card Required
 -------------------
 Symbolic Z-matrix:
 Charge =  0 Multiplicity = 1

 SCF Done:  E(RM06) =  -1371.32480817     A.U. after   18 cycles
 SCF Done:  E(RM06) =  -1371.32847641     A.U. after   14 cycles
 SCF Done:  E(RM06) =  -1371.32918653     A.U. after   15 cycles
 SCF Done:  E(RM06) =  -1371.32810683     A.U. after   16 cycles
 SCF Done:  E(RM06) =  -1371.32952528     A.U. after   12 cycles
 SCF Done:  E(RM06) =  -1371.32989851     A.U. after   14 cycles
 SCF Done:  E(RM06) =  -1371.33007958     A.U. after   13 cycles
 SCF Done:  E(RM06) =  -1371.33007580     A.U. after   13 cycles
 SCF Done:  E(RM06) =  -1371.33018339     A.U. after   12 cycles
 SCF Done:  E(RM06) =  -1371.33019938     A.U. after   12 cycles
 SCF Done:  E(RM06) =  -1371.33135835     A.U. after   13 cycles
 SCF Done:  E(RM06) =  -1371.33129200     A.U. after   13 cycles
 SCF Done:  E(RM06) =  -1371.33144856     A.U. after   13 cycles
 SCF Done:  E(RM06) =  -1371.33147207     A.U. after   12 cycles
 SCF Done:  E(RM06) =  -1371.33147888     A.U. after   11 cycles
 SCF Done:  E(RM06) =  -1371.33148010     A.U. after   10 cycles
 SCF Done:  E(RM06) =  -1371.33148039     A.U. after    9 cycles
 SCF Done:  E(RM06) =  -1371.33148044     A.U. after    8 cycles
 SCF Done:  E(RM06) =  -1371.33148045     A.U. after    7 cycles
 SCF Done:  E(RM06) =  -1371.33148047     A.U. after    7 cycles
 Optimization completed.
    -- Stationary point found.

                         Standard orientation:
 ---------------------------------------------------------------------
 Center     Atomic      Atomic             Coordinates (Angstroms)
 Number     Number       Type             X           Y           Z
 ---------------------------------------------------------------------
      1          9           0       -1.119300   -3.016511   -0.154810
      2          8           0        3.928281   -2.733130    0.143369
      3          8           0       -5.667817   -1.839733    0.387212
      4          8           0        6.442305   -1.570682   -0.014253
      5          8           0        6.552807    0.698750    0.030311
      6          7           0        2.478011    1.154386   -0.122081
      7          7           0       -1.955215   -0.255479   -0.280246
      8          7           0        0.271951    0.366898   -0.198011
      9          7           0       -5.523576   -0.463524    0.016016
     10          7           0       -4.017873    3.606795   -0.326601
     11          6           0        1.962578    2.508473   -0.249539
     12          6           0        2.621534    3.627089    0.534894
     13          6           0        1.237442    3.128686    0.921233
     14          6           0        1.580282    0.071748   -0.118023
     15          6           0       -3.822390    1.185286   -0.617624
     16          6           0       -2.320288    1.176415   -0.303865
     17          6           0       -3.115623   -1.138833   -0.087795
     18          6           0        3.816503    0.905904   -0.094425
     19          6           0       -4.278864   -0.193116   -0.205216
     20          6           0       -0.646751   -0.625800   -0.200421
     21          6           0        2.093222   -1.235995   -0.034706
     22          6           0       -4.576095    2.319462    0.081790
     23          6           0        4.386881   -0.347673   -0.015604
     24          6           0        3.537437   -1.546116    0.041691
     25          6           0       -0.192715   -1.979460   -0.125816
     26          6           0        1.142841   -2.279620   -0.040759
     27          6           0        5.859993   -0.338066    0.006179
     28          6           0       -7.065611   -2.110863    0.647789
     29          1           0        1.578360    2.726997   -1.240567
     30          1           0        2.718643    4.589086    0.045612
     31          1           0        3.442035    3.376964    1.200513
     32          1           0        1.157768    2.525615    1.819803
     33          1           0        0.367438    3.737235    0.703725
     34          1           0       -3.963470    1.284892   -1.705518
     35          1           0       -1.716238    1.711297   -1.039490
     36          1           0       -2.116289    1.646849    0.670686
     37          1           0       -3.113396   -1.636948    0.891616
     38          1           0       -3.173296   -1.934126   -0.839644
     39          1           0        4.470979    1.772380   -0.138097
     40          1           0       -4.440210    2.208587    1.165939
     41          1           0       -5.654315    2.204914   -0.118236
     42          1           0        1.492550   -3.306723    0.014919
     43          1           0       -4.123333    3.836181   -1.309158
     44          1           0       -4.203944    4.389833    0.287765
     45          1           0        7.420019   -1.474100    0.003297
     46          1           0       -7.666904   -1.927400   -0.248763
     47          1           0       -7.433087   -1.487282    1.469657
     48          1           0       -7.109562   -3.165956    0.923881
 ---------------------------------------------------------------------

 The electronic state is 1-A.
 Alpha  occ. eigenvalues --  -24.80800 -19.27033 -19.25878 -19.21191 -19.18690
 Alpha  occ. eigenvalues --  -14.48330 -14.46820 -14.44651 -14.41841 -14.38886
 Alpha  occ. eigenvalues --  -10.40103 -10.36738 -10.35993 -10.35909 -10.34271
 Alpha  occ. eigenvalues --  -10.33348 -10.31827 -10.31479 -10.30721 -10.29961
 Alpha  occ. eigenvalues --  -10.29438 -10.29008 -10.28918 -10.28138 -10.27783
 Alpha  occ. eigenvalues --  -10.27526 -10.27493 -10.26930  -1.26022  -1.13242
 Alpha  occ. eigenvalues --   -1.11279  -1.04952  -1.04079  -1.03691  -1.01592
 Alpha  occ. eigenvalues --   -0.96463  -0.91677  -0.90378  -0.89629  -0.85045
 Alpha  occ. eigenvalues --   -0.82865  -0.81801  -0.79060  -0.75954  -0.71913
 Alpha  occ. eigenvalues --   -0.71101  -0.69587  -0.67992  -0.66493  -0.64341
 Alpha  occ. eigenvalues --   -0.63087  -0.62599  -0.62018  -0.58805  -0.57993
 Alpha  occ. eigenvalues --   -0.56742  -0.56680  -0.54668  -0.54242  -0.52660
 Alpha  occ. eigenvalues --   -0.52117  -0.51717  -0.50778  -0.49893  -0.49323
 Alpha  occ. eigenvalues --   -0.48487  -0.48266  -0.47860  -0.47699  -0.47302
 Alpha  occ. eigenvalues --   -0.46727  -0.45796  -0.45536  -0.44900  -0.44749
 Alpha  occ. eigenvalues --   -0.43707  -0.43238  -0.42931  -0.41142  -0.40373
 Alpha  occ. eigenvalues --   -0.40182  -0.39983  -0.39568  -0.39425  -0.39249
 Alpha  occ. eigenvalues --   -0.38796  -0.38711  -0.38027  -0.36349  -0.33735
 Alpha  occ. eigenvalues --   -0.33336  -0.33014  -0.32084  -0.30774  -0.29450
 Alpha  occ. eigenvalues --   -0.29317  -0.28762  -0.26759  -0.25344  -0.24598
 Alpha  occ. eigenvalues --   -0.24385  -0.23126
 Alpha virt. eigenvalues --   -0.05962  -0.04562  -0.01505  -0.00809   0.02758
 Alpha virt. eigenvalues --    0.06840   0.08633   0.08960   0.09513   0.10159
 Alpha virt. eigenvalues --    0.10352   0.11092   0.11406   0.11703   0.12078

 Mulliken charges:
               1
     1  F   -0.255913
     2  O   -0.291500
     3  O   -0.323787
     4  O   -0.453268
     5  O   -0.353928
     6  N   -0.200858
     7  N   -0.235053
     8  N   -0.084755
     9  N    0.005142
    10  N   -0.670196
    11  C   -0.071287
    12  C   -0.520328
    13  C   -0.454486
    14  C   -0.015320
    15  C   -0.167633
    16  C   -0.313848
    17  C   -0.382199
    18  C   -0.260903
    19  C    0.030291
    20  C    0.108020
    21  C    0.220328
    22  C   -0.380351
    23  C    0.082490
    24  C    0.156267
    25  C    0.241589
    26  C   -0.373343
    27  C    0.201617
    28  C   -0.448336
    29  H    0.267810
    30  H    0.248102
    31  H    0.240518
    32  H    0.234565
    33  H    0.260326
    34  H    0.250110
    35  H    0.254119
    36  H    0.227366
    37  H    0.263500
    38  H    0.274060
    39  H    0.292665
    40  H    0.201133
    41  H    0.224651
    42  H    0.299625
    43  H    0.288484
    44  H    0.308044
    45  H    0.406991
    46  H    0.224984
    47  H    0.223254
    48  H    0.221240
 Sum of Mulliken charges =   0.00000

 Dipole moment (field-independent basis, Debye):
    X=             -7.4173    Y=              6.2032    Z=             -0.3158  Tot=              9.6745
 Quadrupole moment (field-independent basis, Debye-Ang):
   XX=           -161.5688   YY=           -158.2943   ZZ=           -156.0453
   XY=              5.3349   XZ=             -1.7977   YZ=             -2.2897

 Normal termination of Gaussian 09 at Tue Jul 21 18:03:58 2020.
