 Gaussian 09, Revision D.01,
 Gaussian 09:  ES64L-G09RevD.01 24-Apr-2013

 -----------------------------------------------------
 #opt M06/lanl2dz integral=ultrafine geom=connectivity
 -----------------------------------------------------

 -------------------
 Title Card Required
 -------------------
 Symbolic Z-matrix:
 Charge =  0 Multiplicity = 1

 SCF Done:  E(RM06) =  -602.694524352     A.U. after   17 cycles
 SCF Done:  E(RM06) =  -602.697794872     A.U. after   15 cycles
 SCF Done:  E(RM06) =  -602.698151471     A.U. after   14 cycles
 SCF Done:  E(RM06) =  -602.698154607     A.U. after   13 cycles
 SCF Done:  E(RM06) =  -602.698110145     A.U. after   14 cycles
 SCF Done:  E(RM06) =  -602.698174376     A.U. after   11 cycles
 SCF Done:  E(RM06) =  -602.698173787     A.U. after    9 cycles
 SCF Done:  E(RM06) =  -602.698174596     A.U. after    9 cycles
 Optimization completed.
    -- Stationary point found.

                         Standard orientation:
 ---------------------------------------------------------------------
 Center     Atomic      Atomic             Coordinates (Angstroms)
 Number     Number       Type             X           Y           Z
 ---------------------------------------------------------------------
      1          8           0        0.252295   -0.640645   -0.000045
      2          8           0        3.616388    0.437073    0.000048
      3          8           0        2.751009   -1.640884   -0.000052
      4          8           0       -4.365894   -0.602538   -0.000036
      5          7           0        2.641856   -0.381141   -0.000019
      6          7           0       -3.222611    0.227305   -0.000021
      7          6           0       -0.865572    0.179017    0.000013
      8          6           0        1.337876    0.200853    0.000005
      9          6           0       -0.474325    1.509249    0.000028
     10          6           0        0.949486    1.522300    0.000093
     11          6           0       -2.139989   -0.494582    0.000002
     12          1           0       -1.144645    2.353604    0.000045
     13          1           0        1.614016    2.371189    0.000151
     14          1           0       -5.127092    0.012404   -0.000088
     15          1           0       -2.152231   -1.585428    0.000004
 ---------------------------------------------------------------------

 The electronic state is 1-A.
 Alpha  occ. eigenvalues --  -19.34627 -19.30075 -19.27902 -19.27586 -14.65655
 Alpha  occ. eigenvalues --  -14.50779 -10.39521 -10.37770 -10.33733 -10.32021
 Alpha  occ. eigenvalues --  -10.30807  -1.26126  -1.20373  -1.15000  -1.08858
 Alpha  occ. eigenvalues --   -0.93509  -0.88435  -0.86235  -0.76773  -0.68630
 Alpha  occ. eigenvalues --   -0.64701  -0.61201  -0.58317  -0.57649  -0.57481
 Alpha  occ. eigenvalues --   -0.52756  -0.52455  -0.51283  -0.49211  -0.47470
 Alpha  occ. eigenvalues --   -0.45890  -0.45831  -0.43656  -0.35412  -0.34559
 Alpha  occ. eigenvalues --   -0.33191  -0.32876  -0.32401  -0.31434  -0.27647
 Alpha virt. eigenvalues --   -0.12420  -0.06870   0.01385   0.04888   0.05505
 Alpha virt. eigenvalues --    0.08122   0.11047   0.12686   0.14255   0.14658
 Alpha virt. eigenvalues --    0.15366   0.17220   0.19914   0.21450   0.24646

 Mulliken charges:
               1
     1  O   -0.280408
     2  O   -0.253730
     3  O   -0.227662
     4  O   -0.449844
     5  N    0.111960
     6  N   -0.034136
     7  C    0.425210
     8  C    0.311027
     9  C   -0.296492
    10  C   -0.266307
    11  C   -0.259801
    12  H    0.271015
    13  H    0.279364
    14  H    0.405679
    15  H    0.264123
 Sum of Mulliken charges =   0.00000

 Dipole moment (field-independent basis, Debye):
    X=             -5.4836    Y=              3.3234    Z=              0.0000  Tot=              6.4121
 Quadrupole moment (field-independent basis, Debye-Ang):
   XX=            -66.5501   YY=            -61.1350   ZZ=            -61.6827
   XY=              1.8818   XZ=              0.0006   YZ=              0.0000

 Normal termination of Gaussian 09 at Tue Jul 21 03:48:33 2020.
