 Gaussian 09, Revision D.01,
 Gaussian 09:  ES64L-G09RevD.01 24-Apr-2013

 -----------------------------------
 # opt b3lyp/3-21g geom=connectivity
 -----------------------------------

 -------------------
 Title Card Required
 -------------------
 Symbolic Z-matrix:
 Charge =  0 Multiplicity = 1

 SCF Done:  E(RB3LYP) =  -985.976048335     A.U. after   16 cycles
 SCF Done:  E(RB3LYP) =  -985.980053052     A.U. after   14 cycles
 SCF Done:  E(RB3LYP) =  -985.980822679     A.U. after   14 cycles
 SCF Done:  E(RB3LYP) =  -985.980117817     A.U. after   16 cycles
 SCF Done:  E(RB3LYP) =  -985.981081686     A.U. after   12 cycles
 SCF Done:  E(RB3LYP) =  -985.981155899     A.U. after   12 cycles
 SCF Done:  E(RB3LYP) =  -985.981138060     A.U. after   11 cycles
 SCF Done:  E(RB3LYP) =  -985.981164146     A.U. after   10 cycles
 SCF Done:  E(RB3LYP) =  -985.981165342     A.U. after    9 cycles
 SCF Done:  E(RB3LYP) =  -985.981165407     A.U. after    8 cycles
 Optimization completed.
    -- Stationary point found.

                         Standard orientation:
 ---------------------------------------------------------------------
 Center     Atomic      Atomic             Coordinates (Angstroms)
 Number     Number       Type             X           Y           Z
 ---------------------------------------------------------------------
      1          8           0       -2.773543   -2.470399    0.401518
      2          8           0       -5.249053   -1.361165    0.146833
      3          8           0       -5.382452    0.870471   -0.313403
      4          7           0       -1.326246    1.337896   -0.367343
      5          7           0        6.113746    0.097289   -0.081009
      6          6           0       -0.414629    0.290338   -0.140657
      7          6           0       -0.922043   -1.001149    0.113151
      8          6           0       -0.867905    2.737699   -0.594109
      9          6           0        0.976419    0.489469   -0.172918
     10          6           0        1.856231   -0.573986    0.035999
     11          6           0       -2.660011    1.080678   -0.325245
     12          6           0       -2.383403   -1.310835    0.167892
     13          6           0       -3.221295   -0.141281   -0.078944
     14          6           0       -0.028691   -2.058502    0.322405
     15          6           0        1.340170   -1.862428    0.284447
     16          6           0        3.323758   -0.341775   -0.002192
     17          6           0       -0.512701    3.449914    0.724292
     18          6           0       -4.691869   -0.133714   -0.098848
     19          6           0        4.183910   -1.240219   -0.653306
     20          6           0        3.902362    0.780738    0.611382
     21          6           0        5.553205   -0.982870   -0.667674
     22          6           0        5.282914    0.957128    0.547109
     23          1           0       -0.017794    2.717448   -1.280416
     24          1           0       -1.687002    3.257785   -1.096989
     25          1           0        1.386762    1.466642   -0.384752
     26          1           0       -3.328320    1.914763   -0.506432
     27          1           0       -0.468197   -3.028638    0.520154
     28          1           0        2.020674   -2.683870    0.471382
     29          1           0       -1.390298    3.494118    1.375952
     30          1           0        0.284403    2.919816    1.252719
     31          1           0       -0.178115    4.471367    0.515031
     32          1           0        3.785833   -2.111356   -1.158451
     33          1           0        3.285899    1.487839    1.152805
     34          1           0        6.229721   -1.663348   -1.172874
     35          1           0        5.745396    1.815146    1.022651
     36          1           0       -6.239607   -1.250493    0.111398
 ---------------------------------------------------------------------

 The electronic state is 1-A.
 Alpha  occ. eigenvalues --  -19.07234 -19.01929 -19.00444 -14.34774 -14.26016
 Alpha  occ. eigenvalues --  -10.25558 -10.20689 -10.20525 -10.20374 -10.20261
 Alpha  occ. eigenvalues --  -10.17400 -10.17325 -10.17222 -10.16896 -10.15767
 Alpha  occ. eigenvalues --  -10.15216 -10.15168 -10.15049 -10.14682 -10.14644
 Alpha  occ. eigenvalues --  -10.14547 -10.14385  -1.09516  -1.02458  -1.01537
 Alpha  occ. eigenvalues --   -1.00623  -0.96213  -0.88987  -0.84145  -0.83216
 Alpha  occ. eigenvalues --   -0.79396  -0.77875  -0.77248  -0.76890  -0.69097
 Alpha  occ. eigenvalues --   -0.68021  -0.67560  -0.64697  -0.63389  -0.61372
 Alpha  occ. eigenvalues --   -0.60989  -0.57240  -0.54694  -0.53717  -0.52198
 Alpha  occ. eigenvalues --   -0.50609  -0.49089  -0.48582  -0.48413  -0.47962
 Alpha  occ. eigenvalues --   -0.46738  -0.46021  -0.45235  -0.44890  -0.44705
 Alpha  occ. eigenvalues --   -0.43742  -0.43239  -0.41592  -0.41326  -0.40723
 Alpha  occ. eigenvalues --   -0.39817  -0.39042  -0.38717  -0.38075  -0.36878
 Alpha  occ. eigenvalues --   -0.36661  -0.36434  -0.36040  -0.30907  -0.29422
 Alpha  occ. eigenvalues --   -0.27862  -0.27849  -0.26426  -0.25934  -0.25113
 Alpha  occ. eigenvalues --   -0.23008  -0.22569
 Alpha virt. eigenvalues --   -0.06246  -0.04975  -0.02045  -0.01501   0.00153
 Alpha virt. eigenvalues --    0.03693   0.08113   0.08699   0.10382   0.11249
 Alpha virt. eigenvalues --    0.11586   0.12424   0.12838   0.13789   0.14629

 Mulliken charges:
               1
     1  O   -0.492222
     2  O   -0.540206
     3  O   -0.516914
     4  N   -0.825785
     5  N   -0.524200
     6  C    0.372223
     7  C   -0.063625
     8  C   -0.225058
     9  C   -0.194534
    10  C   -0.006326
    11  C    0.214669
    12  C    0.407247
    13  C   -0.206394
    14  C   -0.162282
    15  C   -0.190452
    16  C    0.030702
    17  C   -0.562147
    18  C    0.665821
    19  C   -0.235929
    20  C   -0.239371
    21  C    0.071296
    22  C    0.071671
    23  H    0.228355
    24  H    0.230563
    25  H    0.196553
    26  H    0.258849
    27  H    0.227783
    28  H    0.197348
    29  H    0.216053
    30  H    0.213121
    31  H    0.204210
    32  H    0.199718
    33  H    0.190216
    34  H    0.214992
    35  H    0.212659
    36  H    0.361396
 Sum of Mulliken charges =   0.00000

 Dipole moment (field-independent basis, Debye):
    X=              1.3221    Y=              4.1165    Z=             -0.6016  Tot=              4.3653
 Quadrupole moment (field-independent basis, Debye-Ang):
   XX=           -150.2007   YY=           -117.1738   ZZ=           -127.5142
   XY=             -7.0065   XZ=              0.0580   YZ=              3.1094

 Normal termination of Gaussian 09 at Mon Jul  6 11:19:52 2020.
