 Gaussian 09, Revision D.01,
 Gaussian 09:  ES64L-G09RevD.01 24-Apr-2013

 -----------------------------------
 # opt b3lyp/3-21g geom=connectivity
 -----------------------------------

 -------------------
 Title Card Required
 -------------------
 Symbolic Z-matrix:
 Charge =  0 Multiplicity = 1

 SCF Done:  E(RB3LYP) =  -1492.29995019     A.U. after   17 cycles
 SCF Done:  E(RB3LYP) =  -1492.30680739     A.U. after   14 cycles
 SCF Done:  E(RB3LYP) =  -1492.30822863     A.U. after   14 cycles
 SCF Done:  E(RB3LYP) =  -1492.30910081     A.U. after   13 cycles
 SCF Done:  E(RB3LYP) =  -1492.30885880     A.U. after   13 cycles
 SCF Done:  E(RB3LYP) =  -1492.30942413     A.U. after   10 cycles
 SCF Done:  E(RB3LYP) =  -1492.30970449     A.U. after   13 cycles
 SCF Done:  E(RB3LYP) =  -1492.30974319     A.U. after   15 cycles
 SCF Done:  E(RB3LYP) =  -1492.30999067     A.U. after   12 cycles
 SCF Done:  E(RB3LYP) =  -1492.31007500     A.U. after   12 cycles
 SCF Done:  E(RB3LYP) =  -1492.31020913     A.U. after   12 cycles
 SCF Done:  E(RB3LYP) =  -1492.31026565     A.U. after   12 cycles
 SCF Done:  E(RB3LYP) =  -1492.31028370     A.U. after   12 cycles
 SCF Done:  E(RB3LYP) =  -1492.31028430     A.U. after   10 cycles
 SCF Done:  E(RB3LYP) =  -1492.31028499     A.U. after    8 cycles
 SCF Done:  E(RB3LYP) =  -1492.31028513     A.U. after    8 cycles
 SCF Done:  E(RB3LYP) =  -1492.31028528     A.U. after    9 cycles
 SCF Done:  E(RB3LYP) =  -1492.31028529     A.U. after    9 cycles
 SCF Done:  E(RB3LYP) =  -1492.31028534     A.U. after    8 cycles
 Optimization completed.
    -- Stationary point found.

                         Standard orientation:
 ---------------------------------------------------------------------
 Center     Atomic      Atomic             Coordinates (Angstroms)
 Number     Number       Type             X           Y           Z
 ---------------------------------------------------------------------
      1          7           0       -2.993346   -0.688308    0.674550
      2          6           0       -3.275265    0.706432    1.071658
      3          6           0       -3.840399    1.491477   -0.128193
      4          7           0       -5.057920    0.776450   -0.582995
      5          6           0       -4.205346   -1.381467    0.175371
      6          6           0       -4.785319   -0.614532   -1.032160
      7          1           0       -5.557904    1.304729   -1.305615
      8          1           0       -2.372514    1.161835    1.485922
      9          1           0       -4.051772    0.676944    1.845008
     10          1           0       -4.960066   -1.375657    0.970805
     11          1           0       -3.953222   -2.403851   -0.087964
     12          1           0       -4.036470   -0.653410   -1.845107
     13          1           0       -4.123618    2.501428    0.186859
     14          1           0       -3.059401    1.566912   -0.906994
     15          8           0        2.594824   -3.736000   -0.038766
     16          8           0        5.188910   -2.977120   -0.316364
     17          8           0        5.652548   -0.746962   -0.448120
     18          7           0        1.721906    0.321732   -0.054029
     19          6           0       -0.658414   -0.211334    0.198351
     20          6           0        0.672240   -0.617962    0.093791
     21          6           0        0.994090   -1.984848    0.103448
     22          6           0        3.008953   -0.133242   -0.178678
     23          6           0        3.372889   -1.446841   -0.182853
     24          6           0        2.371687   -2.510009   -0.042066
     25          6           0       -0.051770   -2.906635    0.250004
     26          6           0       -1.705131   -1.120009    0.412778
     27          6           0       -6.100183   -1.255635   -1.496306
     28          6           0       -1.346045   -2.496559    0.415921
     29          6           0        4.823085   -1.657004   -0.326837
     30          1           0        3.784643    0.617549   -0.266054
     31          1           0        0.202656   -3.958237    0.262929
     32          1           0       -6.830931   -1.209905   -0.682808
     33          1           0       -6.508437   -0.718863   -2.360866
     34          1           0       -5.941370   -2.299995   -1.785172
     35          1           0        6.180697   -3.010611   -0.416888
     36          6           0        1.156328    4.508889   -0.158295
     37          6           0        0.669259    3.781625    0.918330
     38          6           0        0.846143    2.408372    0.951768
     39          6           0        1.800931    3.873390   -1.212147
     40          6           0        1.953747    2.491024   -1.178519
     41          6           0        1.488031    1.738112   -0.095747
     42          1           0        2.165314    4.456179   -2.045833
     43          1           0        0.170217    4.279328    1.736180
     44          9           0       -2.332436   -3.446036    0.603695
     45          1           0       -0.893978    0.833235    0.095483
     46          9           0        0.989764    5.862407   -0.178900
     47          1           0        2.434316    1.977715   -2.001092
     48          9           0        0.346009    1.704379    2.011518
 ---------------------------------------------------------------------

 The electronic state is 1-A.
 Alpha  occ. eigenvalues --  -24.60959 -24.60005 -24.57385 -19.06945 -19.01640
 Alpha  occ. eigenvalues --  -18.99685 -14.35236 -14.28555 -14.24175 -10.25883
 Alpha  occ. eigenvalues --  -10.25343 -10.25276 -10.21840 -10.21316 -10.20034
 Alpha  occ. eigenvalues --  -10.19818 -10.19750 -10.19477 -10.18162 -10.17496
 Alpha  occ. eigenvalues --  -10.17138 -10.16630 -10.16054 -10.15969 -10.15631
 Alpha  occ. eigenvalues --  -10.14275 -10.14025 -10.13990 -10.13585 -10.12068
 Alpha  occ. eigenvalues --   -1.24615  -1.23910  -1.20673  -1.09241  -1.02440
 Alpha  occ. eigenvalues --   -1.01268  -1.00356  -0.96840  -0.91587  -0.90720
 Alpha  occ. eigenvalues --   -0.86960  -0.83126  -0.80420  -0.79412  -0.79053
 Alpha  occ. eigenvalues --   -0.77586  -0.76392  -0.72229  -0.70011  -0.68673
 Alpha  occ. eigenvalues --   -0.67002  -0.66461  -0.65655  -0.62689  -0.62176
 Alpha  occ. eigenvalues --   -0.60872  -0.59299  -0.58359  -0.56509  -0.56207
 Alpha  occ. eigenvalues --   -0.55136  -0.54165  -0.52464  -0.52215  -0.50937
 Alpha  occ. eigenvalues --   -0.49711  -0.48977  -0.48471  -0.48357  -0.47845
 Alpha  occ. eigenvalues --   -0.47519  -0.47142  -0.46716  -0.46206  -0.46156
 Alpha  occ. eigenvalues --   -0.45509  -0.44697  -0.44528  -0.44337  -0.43791
 Alpha  occ. eigenvalues --   -0.42644  -0.42035  -0.41635  -0.40927  -0.40582
 Alpha  occ. eigenvalues --   -0.40047  -0.39373  -0.38979  -0.38925  -0.38592
 Alpha  occ. eigenvalues --   -0.37728  -0.36879  -0.36610  -0.36394  -0.35711
 Alpha  occ. eigenvalues --   -0.35270  -0.35106  -0.33913  -0.29832  -0.29531
 Alpha  occ. eigenvalues --   -0.28871  -0.28283  -0.26413  -0.26119  -0.22546
 Alpha  occ. eigenvalues --   -0.22327  -0.21935  -0.19667
 Alpha virt. eigenvalues --   -0.04982  -0.04311  -0.03128  -0.02840   0.01387
 Alpha virt. eigenvalues --    0.04404   0.05250   0.09173   0.09526   0.09752
 Alpha virt. eigenvalues --    0.11265   0.11750   0.12215   0.12496   0.12854

 Mulliken charges:
               1
     1  N   -0.686876
     2  C   -0.197230
     3  C   -0.229256
     4  N   -0.560123
     5  C   -0.194252
     6  C   -0.073975
     7  H    0.272766
     8  H    0.205159
     9  H    0.225506
    10  H    0.210634
    11  H    0.225197
    12  H    0.173749
    13  H    0.197619
    14  H    0.172758
    15  O   -0.494883
    16  O   -0.538931
    17  O   -0.516717
    18  N   -0.937131
    19  C   -0.205673
    20  C    0.362881
    21  C   -0.074994
    22  C    0.206391
    23  C   -0.209271
    24  C    0.404542
    25  C   -0.198119
    26  C    0.327704
    27  C   -0.545413
    28  C    0.284253
    29  C    0.665648
    30  H    0.264629
    31  H    0.239906
    32  H    0.205219
    33  H    0.186299
    34  H    0.193602
    35  H    0.360648
    36  C    0.306064
    37  C   -0.244796
    38  C    0.301643
    39  C   -0.220321
    40  C   -0.168649
    41  C    0.229561
    42  H    0.230317
    43  H    0.245903
    44  F   -0.286385
    45  H    0.205000
    46  F   -0.281620
    47  H    0.232459
    48  F   -0.271442
 Sum of Mulliken charges =   0.00000

 Dipole moment (field-independent basis, Debye):
    X=             -3.7798    Y=              6.0446    Z=             -1.9955  Tot=              7.4031
 Quadrupole moment (field-independent basis, Debye-Ang):
   XX=           -166.9269   YY=           -180.8576   ZZ=           -166.6651
   XY=              4.2855   XZ=              2.1126   YZ=             -0.1103

 Normal termination of Gaussian 09 at Mon Jul  6 12:40:16 2020.
