 Gaussian 09, Revision D.01,
 Gaussian 09:  ES64L-G09RevD.01 24-Apr-2013

 -----------------------------------------------------
 #opt M06/lanl2dz integral=ultrafine geom=connectivity
 -----------------------------------------------------

 -------------------
 Title Card Required
 -------------------
 Symbolic Z-matrix:
 Charge =  0 Multiplicity = 1

 SCF Done:  E(RM06) =  -1128.11601050     A.U. after   18 cycles
 SCF Done:  E(RM06) =  -1128.11848705     A.U. after   15 cycles
 SCF Done:  E(RM06) =  -1128.11940872     A.U. after   14 cycles
 SCF Done:  E(RM06) =  -1128.11985743     A.U. after   14 cycles
 SCF Done:  E(RM06) =  -1128.12014390     A.U. after   15 cycles
 SCF Done:  E(RM06) =  -1128.12113843     A.U. after   13 cycles
 SCF Done:  E(RM06) =  -1128.12208784     A.U. after   15 cycles
 SCF Done:  E(RM06) =  -1128.11632945     A.U. after   17 cycles
 SCF Done:  E(RM06) =  -1128.12268029     A.U. after   14 cycles
 SCF Done:  E(RM06) =  -1128.12310672     A.U. after   13 cycles
 SCF Done:  E(RM06) =  -1128.12036452     A.U. after   17 cycles
 SCF Done:  E(RM06) =  -1128.12365100     A.U. after   12 cycles
 SCF Done:  E(RM06) =  -1128.12119084     A.U. after   15 cycles
 SCF Done:  E(RM06) =  -1128.12365175     A.U. after   11 cycles
 SCF Done:  E(RM06) =  -1128.12364475     A.U. after   11 cycles
 SCF Done:  E(RM06) =  -1128.12364628     A.U. after   12 cycles
 SCF Done:  E(RM06) =  -1128.12365288     A.U. after   12 cycles
 SCF Done:  E(RM06) =  -1128.12365293     A.U. after    8 cycles
 SCF Done:  E(RM06) =  -1128.12365315     A.U. after    8 cycles
 SCF Done:  E(RM06) =  -1128.12365322     A.U. after    7 cycles
 Optimization completed.
    -- Stationary point found.

                         Standard orientation:
 ---------------------------------------------------------------------
 Center     Atomic      Atomic             Coordinates (Angstroms)
 Number     Number       Type             X           Y           Z
 ---------------------------------------------------------------------
      1          9           0        2.521808   -2.888460    0.396298
      2          8           0        1.683760    1.789315   -0.189810
      3          8           0       -2.480723   -2.614178    0.139192
      4          8           0       -5.007787   -1.510414   -0.069614
      5          8           0       -5.152926    0.752477   -0.231807
      6          7           0        4.071784    0.569714    1.211686
      7          7           0       -1.099595    1.278523   -0.175267
      8          6           0        3.614874   -0.183058    0.075049
      9          6           0        4.250179    0.201187   -1.258609
     10          6           0        4.627204   -1.102506   -0.583892
     11          6           0        2.154917   -0.540396    0.056353
     12          6           0        1.209416    0.484146   -0.079667
     13          6           0       -0.176934    0.221933   -0.072515
     14          6           0        1.635676   -1.837912    0.208717
     15          6           0       -0.598348    2.672369   -0.123862
     16          6           0       -0.645164   -1.101602    0.044505
     17          6           0        0.755262    2.703381   -0.832828
     18          6           0        0.284324   -2.140103    0.189840
     19          6           0       -2.428435    1.016220   -0.176453
     20          6           0       -2.103105   -1.426019    0.035897
     21          6           0       -0.507950    3.157621    1.324572
     22          6           0       -2.973696   -0.250092   -0.094730
     23          6           0       -4.446257   -0.271524   -0.138002
     24          1           0        4.959922    1.019810   -1.221116
     25          1           0        3.629403    0.155854   -2.148650
     26          1           0        4.272806   -2.030254   -1.018233
     27          1           0        5.595433   -1.157521   -0.100047
     28          1           0        3.710001    1.514765    1.279396
     29          1           0        4.142073    0.066564    2.087969
     30          1           0       -1.303439    3.294861   -0.688572
     31          1           0        0.646886    2.423265   -1.889136
     32          1           0        1.211099    3.691908   -0.757035
     33          1           0       -0.075949   -3.158609    0.295521
     34          1           0       -3.101164    1.869554   -0.248502
     35          1           0        0.219996    2.561424    1.885286
     36          1           0       -0.191318    4.205772    1.356057
     37          1           0       -1.480845    3.075438    1.820080
     38          1           0       -5.986871   -1.433813   -0.104579
 ---------------------------------------------------------------------

 The electronic state is 1-A.
 Alpha  occ. eigenvalues --  -24.80100 -19.28705 -19.26633 -19.21956 -19.19864
 Alpha  occ. eigenvalues --  -14.49749 -14.38004 -10.40901 -10.36167 -10.35323
 Alpha  occ. eigenvalues --  -10.35300 -10.35069 -10.34953 -10.34597 -10.33965
 Alpha  occ. eigenvalues --  -10.30468 -10.29623 -10.29278 -10.28470 -10.27686
 Alpha  occ. eigenvalues --  -10.27547 -10.24936 -10.24685  -1.25475  -1.14020
 Alpha  occ. eigenvalues --   -1.13103  -1.05478  -1.04815  -1.04127  -0.93354
 Alpha  occ. eigenvalues --   -0.90483  -0.86472  -0.83531  -0.82982  -0.81100
 Alpha  occ. eigenvalues --   -0.78334  -0.74972  -0.71289  -0.69400  -0.68606
 Alpha  occ. eigenvalues --   -0.64984  -0.62129  -0.61380  -0.60241  -0.58767
 Alpha  occ. eigenvalues --   -0.57023  -0.56754  -0.54531  -0.53243  -0.52127
 Alpha  occ. eigenvalues --   -0.51237  -0.50965  -0.50291  -0.49846  -0.49669
 Alpha  occ. eigenvalues --   -0.48998  -0.48125  -0.47773  -0.47340  -0.46559
 Alpha  occ. eigenvalues --   -0.44808  -0.44694  -0.43905  -0.42945  -0.42373
 Alpha  occ. eigenvalues --   -0.41884  -0.40534  -0.40185  -0.39804  -0.39165
 Alpha  occ. eigenvalues --   -0.38561  -0.37363  -0.37067  -0.34957  -0.33350
 Alpha  occ. eigenvalues --   -0.32820  -0.30656  -0.29579  -0.29215  -0.27090
 Alpha  occ. eigenvalues --   -0.25485  -0.24593  -0.24073
 Alpha virt. eigenvalues --   -0.06494  -0.05763  -0.00459   0.01758   0.04872
 Alpha virt. eigenvalues --    0.08805   0.09007   0.09547   0.10300   0.10470
 Alpha virt. eigenvalues --    0.11349   0.12010   0.12881   0.13184   0.13796

 Mulliken charges:
               1
     1  F   -0.245622
     2  O   -0.335217
     3  O   -0.275228
     4  O   -0.451281
     5  O   -0.354966
     6  N   -0.688431
     7  N   -0.227592
     8  C    0.215498
     9  C   -0.512290
    10  C   -0.541468
    11  C    0.183152
    12  C    0.175769
    13  C    0.178112
    14  C    0.237632
    15  C   -0.079431
    16  C    0.254197
    17  C   -0.335374
    18  C   -0.644844
    19  C   -0.286257
    20  C    0.140627
    21  C   -0.632975
    22  C    0.072287
    23  C    0.203257
    24  H    0.251703
    25  H    0.218594
    26  H    0.241625
    27  H    0.246135
    28  H    0.313091
    29  H    0.293859
    30  H    0.238262
    31  H    0.235620
    32  H    0.233142
    33  H    0.299522
    34  H    0.280405
    35  H    0.237429
    36  H    0.220057
    37  H    0.231774
    38  H    0.409229
 Sum of Mulliken charges =   0.00000

 Dipole moment (field-independent basis, Debye):
    X=              1.8139    Y=              7.3528    Z=             -0.3664  Tot=              7.5821
 Quadrupole moment (field-independent basis, Debye-Ang):
   XX=           -150.0665   YY=           -130.1921   ZZ=           -126.4620
   XY=             -1.3739   XZ=              0.3136   YZ=              0.1187

 Normal termination of Gaussian 09 at Tue Jul 21 13:37:36 2020.
