 Gaussian 09, Revision D.01,
 Gaussian 09:  ES64L-G09RevD.01 24-Apr-2013

 -----------------------------------------------------
 #opt M06/lanl2dz integral=ultrafine geom=connectivity
 -----------------------------------------------------

 -------------------
 Title Card Required
 -------------------
 Symbolic Z-matrix:
 Charge =  0 Multiplicity = 1

 SCF Done:  E(RM06) =  -1125.51631490     A.U. after   18 cycles
 SCF Done:  E(RM06) =  -1125.51796423     A.U. after   14 cycles
 SCF Done:  E(RM06) =  -1125.51855992     A.U. after   14 cycles
 SCF Done:  E(RM06) =  -1125.51901328     A.U. after   13 cycles
 SCF Done:  E(RM06) =  -1125.51910857     A.U. after   13 cycles
 SCF Done:  E(RM06) =  -1125.51917073     A.U. after   12 cycles
 SCF Done:  E(RM06) =  -1125.51918604     A.U. after   13 cycles
 SCF Done:  E(RM06) =  -1125.51922542     A.U. after   12 cycles
 SCF Done:  E(RM06) =  -1125.51924039     A.U. after   13 cycles
 SCF Done:  E(RM06) =  -1125.51925802     A.U. after    9 cycles
 SCF Done:  E(RM06) =  -1125.51926136     A.U. after   11 cycles
 SCF Done:  E(RM06) =  -1125.51926252     A.U. after    9 cycles
 SCF Done:  E(RM06) =  -1125.51926283     A.U. after    8 cycles
 SCF Done:  E(RM06) =  -1125.51926303     A.U. after    8 cycles
 SCF Done:  E(RM06) =  -1125.51926308     A.U. after    7 cycles
 SCF Done:  E(RM06) =  -1125.51926308     A.U. after    7 cycles
 Optimization completed.
    -- Stationary point found.

                         Standard orientation:
 ---------------------------------------------------------------------
 Center     Atomic      Atomic             Coordinates (Angstroms)
 Number     Number       Type             X           Y           Z
 ---------------------------------------------------------------------
      1          9           0       -1.955497   -3.036161   -0.299952
      2          8           0        3.007059   -2.381526    0.347875
      3          8           0        5.433027   -1.036641    0.483594
      4          8           0        5.415109    1.208249    0.128235
      5          7           0       -2.996560   -0.340417   -0.642988
      6          7           0       -5.034455    0.881707    0.870060
      7          7           0        1.355312    1.352957   -0.425556
      8          7           0       -0.797053    0.428918   -0.494876
      9          6           0       -3.431018    1.033258   -0.953303
     10          6           0       -4.101569   -1.156172   -0.100581
     11          6           0       -3.955784    1.704891    0.320333
     12          6           0       -4.628654   -0.489513    1.177431
     13          6           0       -1.665493   -0.608817   -0.448650
     14          6           0        0.522684    0.227782   -0.338156
     15          6           0        1.105044   -1.027149   -0.082379
     16          6           0       -1.124229   -1.920855   -0.249060
     17          6           0        0.218955   -2.123744   -0.055620
     18          6           0        0.777424    2.695715   -0.653275
     19          6           0        2.554802   -1.233159    0.126224
     20          6           0        2.692111    1.208189   -0.223180
     21          6           0        3.330079    0.013034    0.042067
     22          6           0        0.333725    3.337869    0.659826
     23          6           0        4.787879    0.133404    0.213929
     24          1           0       -4.245231    0.967102   -1.685955
     25          1           0       -2.593913    1.591420   -1.374777
     26          1           0       -3.774854   -2.175014    0.097078
     27          1           0       -4.904182   -1.179280   -0.847599
     28          1           0       -3.104562    1.821498    1.022567
     29          1           0       -4.343522    2.700892    0.082365
     30          1           0       -5.491630   -1.050230    1.551343
     31          1           0       -3.827857   -0.536697    1.945291
     32          1           0       -5.587659    1.332382    1.591752
     33          1           0        0.623702   -3.120688    0.096211
     34          1           0        1.542555    3.299691   -1.152801
     35          1           0       -0.072479    2.580245   -1.330478
     36          1           0        3.294112    2.113056   -0.281261
     37          1           0       -0.441177    2.727455    1.135141
     38          1           0        1.177569    3.433445    1.352778
     39          1           0       -0.075362    4.336816    0.477206
     40          1           0        6.395963   -0.867864    0.582971
 ---------------------------------------------------------------------

 The electronic state is 1-A.
 Alpha  occ. eigenvalues --  -24.81161 -19.26039 -19.21349 -19.18816 -14.48307
 Alpha  occ. eigenvalues --  -14.44551 -14.42255 -14.39615 -10.40267 -10.37287
 Alpha  occ. eigenvalues --  -10.36394 -10.36198 -10.34438 -10.33653 -10.31379
 Alpha  occ. eigenvalues --  -10.29454 -10.29235 -10.29161 -10.28974 -10.28933
 Alpha  occ. eigenvalues --  -10.28003 -10.27732 -10.25752  -1.26351  -1.13404
 Alpha  occ. eigenvalues --   -1.05029  -1.04226  -1.03810  -1.01376  -0.96501
 Alpha  occ. eigenvalues --   -0.92328  -0.85932  -0.83270  -0.81546  -0.79658
 Alpha  occ. eigenvalues --   -0.78313  -0.73987  -0.71178  -0.68857  -0.67480
 Alpha  occ. eigenvalues --   -0.67024  -0.64580  -0.62912  -0.61967  -0.58509
 Alpha  occ. eigenvalues --   -0.57311  -0.56409  -0.54867  -0.53801  -0.51017
 Alpha  occ. eigenvalues --   -0.50557  -0.50257  -0.49192  -0.48992  -0.48224
 Alpha  occ. eigenvalues --   -0.47912  -0.47793  -0.47130  -0.46716  -0.45997
 Alpha  occ. eigenvalues --   -0.45213  -0.44864  -0.43868  -0.42945  -0.42630
 Alpha  occ. eigenvalues --   -0.41639  -0.40965  -0.40119  -0.39909  -0.38973
 Alpha  occ. eigenvalues --   -0.38338  -0.38080  -0.38000  -0.37576  -0.37071
 Alpha  occ. eigenvalues --   -0.33178  -0.32335  -0.30951  -0.30064  -0.28943
 Alpha  occ. eigenvalues --   -0.25729  -0.24583  -0.24256  -0.22647
 Alpha virt. eigenvalues --   -0.06284  -0.04774  -0.00977   0.02414   0.08005
 Alpha virt. eigenvalues --    0.09007   0.09528   0.09938   0.10690   0.11145
 Alpha virt. eigenvalues --    0.11463   0.12562   0.13281   0.13738   0.14319

 Mulliken charges:
               1
     1  F   -0.258682
     2  O   -0.291646
     3  O   -0.453215
     4  O   -0.355078
     5  N   -0.197165
     6  N   -0.372457
     7  N   -0.180894
     8  N   -0.120860
     9  C   -0.344555
    10  C   -0.376667
    11  C   -0.368003
    12  C   -0.352317
    13  C    0.127543
    14  C    0.010205
    15  C    0.244728
    16  C    0.230840
    17  C   -0.363782
    18  C   -0.311157
    19  C    0.154927
    20  C   -0.275224
    21  C    0.093491
    22  C   -0.637455
    23  C    0.203969
    24  H    0.234933
    25  H    0.231134
    26  H    0.261426
    27  H    0.233023
    28  H    0.194401
    29  H    0.213735
    30  H    0.219662
    31  H    0.184222
    32  H    0.300372
    33  H    0.299892
    34  H    0.217234
    35  H    0.240877
    36  H    0.282061
    37  H    0.235748
    38  H    0.219227
    39  H    0.218214
    40  H    0.407294
 Sum of Mulliken charges =   0.00000

 Dipole moment (field-independent basis, Debye):
    X=             -6.3025    Y=              5.3208    Z=              0.4216  Tot=              8.2589
 Quadrupole moment (field-independent basis, Debye-Ang):
   XX=           -136.4357   YY=           -135.5484   ZZ=           -129.8827
   XY=              1.1337   XZ=             -7.2407   YZ=             -0.5887

 Normal termination of Gaussian 09 at Tue Jul 21 07:33:21 2020.
