 Gaussian 09, Revision D.01,
 Gaussian 09:  ES64L-G09RevD.01 24-Apr-2013

 -----------------------------------------------------
 #opt M06/lanl2dz integral=ultrafine geom=connectivity
 -----------------------------------------------------

 -------------------
 Title Card Required
 -------------------
 Symbolic Z-matrix:
 Charge =  0 Multiplicity = 1

 SCF Done:  E(RM06) =  -987.046621407     A.U. after   16 cycles
 SCF Done:  E(RM06) =  -987.048282512     A.U. after   14 cycles
 SCF Done:  E(RM06) =  -987.048442291     A.U. after   13 cycles
 SCF Done:  E(RM06) =  -987.048457189     A.U. after   12 cycles
 SCF Done:  E(RM06) =  -987.048468165     A.U. after   12 cycles
 SCF Done:  E(RM06) =  -987.048475088     A.U. after   10 cycles
 SCF Done:  E(RM06) =  -987.048475633     A.U. after    9 cycles
 SCF Done:  E(RM06) =  -987.048477211     A.U. after    9 cycles
 SCF Done:  E(RM06) =  -987.048477418     A.U. after    8 cycles
 SCF Done:  E(RM06) =  -987.048477504     A.U. after    8 cycles
 SCF Done:  E(RM06) =  -987.048477578     A.U. after    8 cycles
 SCF Done:  E(RM06) =  -987.048477650     A.U. after    8 cycles
 SCF Done:  E(RM06) =  -987.048477678     A.U. after    8 cycles
 SCF Done:  E(RM06) =  -987.048477696     A.U. after    8 cycles
 Optimization completed.
    -- Stationary point found.

                         Standard orientation:
 ---------------------------------------------------------------------
 Center     Atomic      Atomic             Coordinates (Angstroms)
 Number     Number       Type             X           Y           Z
 ---------------------------------------------------------------------
      1          8           0       -2.619625   -2.507605    0.215344
      2          8           0       -5.114922   -1.298512    0.114646
      3          8           0       -5.184797    0.949641   -0.211877
      4          7           0        3.257056   -0.325388   -0.032933
      5          7           0       -1.100722    1.328293   -0.301123
      6          7           0        1.095360    0.512156   -0.171697
      7          7           0        1.518750   -1.861361    0.148047
      8          6           0        5.324183    0.775006    0.180555
      9          6           0        5.568066   -0.670901   -0.288452
     10          6           0        3.846939    1.016418   -0.161031
     11          6           0        4.266856   -1.392957    0.087472
     12          6           0        1.928165   -0.554923   -0.020700
     13          6           0       -0.224089    0.252829   -0.144135
     14          6           0       -0.757846   -1.041843    0.028483
     15          6           0       -0.577476    2.706311   -0.436537
     16          6           0        0.200089   -2.070180    0.166209
     17          6           0       -2.444878    1.104059   -0.250590
     18          6           0       -2.204206   -1.334698    0.067997
     19          6           0       -3.038336   -0.127747   -0.080261
     20          6           0       -0.352636    3.346436    0.932162
     21          6           0       -4.511775   -0.090561   -0.069581
     22          1           0        5.472230    0.847060    1.264657
     23          1           0        5.984501    1.500026   -0.301737
     24          1           0        5.707249   -0.694557   -1.375892
     25          1           0        6.444211   -1.129741    0.176198
     26          1           0        3.347157    1.719856    0.513187
     27          1           0        3.714104    1.391904   -1.185402
     28          1           0        4.016091   -2.230190   -0.569271
     29          1           0        4.286922   -1.778172    1.115734
     30          1           0        0.361813    2.646948   -0.991099
     31          1           0       -1.302143    3.274643   -1.029461
     32          1           0       -0.151772   -3.090418    0.296994
     33          1           0       -3.085813    1.977133   -0.359050
     34          1           0       -1.284654    3.377820    1.508295
     35          1           0        0.389267    2.774372    1.498893
     36          1           0        0.015230    4.371145    0.818259
     37          1           0       -6.091079   -1.185406    0.109198
 ---------------------------------------------------------------------

 The electronic state is 1-A.
 Alpha  occ. eigenvalues --  -19.26158 -19.21491 -19.18914 -14.48368 -14.43952
 Alpha  occ. eigenvalues --  -14.41873 -14.41458 -10.40411 -10.37823 -10.36869
 Alpha  occ. eigenvalues --  -10.34611 -10.33855 -10.31562 -10.31196 -10.29666
 Alpha  occ. eigenvalues --  -10.29188 -10.27918 -10.27324 -10.26409 -10.26236
 Alpha  occ. eigenvalues --  -10.25617  -1.13543  -1.05713  -1.04380  -1.04077
 Alpha  occ. eigenvalues --   -1.02507  -0.96897  -0.92486  -0.85067  -0.83914
 Alpha  occ. eigenvalues --   -0.80062  -0.78462  -0.76513  -0.72160  -0.70396
 Alpha  occ. eigenvalues --   -0.68341  -0.65353  -0.63818  -0.62984  -0.61235
 Alpha  occ. eigenvalues --   -0.58010  -0.56656  -0.55011  -0.53675  -0.52679
 Alpha  occ. eigenvalues --   -0.50951  -0.50264  -0.49167  -0.48167  -0.47109
 Alpha  occ. eigenvalues --   -0.46571  -0.45697  -0.45187  -0.45161  -0.44940
 Alpha  occ. eigenvalues --   -0.43106  -0.42348  -0.42134  -0.40881  -0.40145
 Alpha  occ. eigenvalues --   -0.40015  -0.39091  -0.38427  -0.38075  -0.37713
 Alpha  occ. eigenvalues --   -0.37519  -0.35518  -0.33669  -0.33174  -0.32895
 Alpha  occ. eigenvalues --   -0.32158  -0.29087  -0.26553  -0.25439  -0.24540
 Alpha  occ. eigenvalues --   -0.23952
 Alpha virt. eigenvalues --   -0.06741  -0.04358  -0.01272   0.02401   0.09294
 Alpha virt. eigenvalues --    0.09812   0.10805   0.11072   0.11310   0.12204
 Alpha virt. eigenvalues --    0.12393   0.13090   0.13830   0.14822   0.15252

 Mulliken charges:
               1
     1  O   -0.285921
     2  O   -0.451872
     3  O   -0.353731
     4  N   -0.171635
     5  N   -0.195030
     6  N   -0.135346
     7  N   -0.102400
     8  C   -0.444313
     9  C   -0.445025
    10  C   -0.331994
    11  C   -0.324552
    12  C    0.062582
    13  C    0.139315
    14  C    0.164658
    15  C   -0.315789
    16  C   -0.342519
    17  C   -0.263412
    18  C    0.171130
    19  C    0.100986
    20  C   -0.635088
    21  C    0.207095
    22  H    0.218662
    23  H    0.226876
    24  H    0.218169
    25  H    0.228850
    26  H    0.238588
    27  H    0.226704
    28  H    0.254081
    29  H    0.231068
    30  H    0.254335
    31  H    0.215284
    32  H    0.274771
    33  H    0.284797
    34  H    0.217187
    35  H    0.236691
    36  H    0.219012
    37  H    0.407788
 Sum of Mulliken charges =   0.00000

 Dipole moment (field-independent basis, Debye):
    X=              6.5546    Y=              5.1446    Z=             -0.3949  Tot=              8.3418
 Quadrupole moment (field-independent basis, Debye-Ang):
   XX=           -112.8961   YY=           -125.3695   ZZ=           -120.4570
   XY=             -2.2008   XZ=             -0.4250   YZ=              0.8474

 Normal termination of Gaussian 09 at Tue Jul 21 07:04:05 2020.
