 Gaussian 09, Revision D.01,
 Gaussian 09:  ES64L-G09RevD.01 24-Apr-2013

 -----------------------------------
 # opt b3lyp/3-21g geom=connectivity
 -----------------------------------

 -------------------
 Title Card Required
 -------------------
 Symbolic Z-matrix:
 Charge =  0 Multiplicity = 1

 SCF Done:  E(RB3LYP) =  -1340.70471692     A.U. after   17 cycles
 SCF Done:  E(RB3LYP) =  -1340.71069704     A.U. after   15 cycles
 SCF Done:  E(RB3LYP) =  -1340.71198573     A.U. after   14 cycles
 SCF Done:  E(RB3LYP) =  -1340.71238614     A.U. after   13 cycles
 SCF Done:  E(RB3LYP) =  -1340.71236508     A.U. after   13 cycles
 SCF Done:  E(RB3LYP) =  -1340.71267528     A.U. after   13 cycles
 SCF Done:  E(RB3LYP) =  -1340.71273146     A.U. after   13 cycles
 SCF Done:  E(RB3LYP) =  -1340.71281314     A.U. after   13 cycles
 SCF Done:  E(RB3LYP) =  -1340.71289215     A.U. after   13 cycles
 SCF Done:  E(RB3LYP) =  -1340.71297981     A.U. after   14 cycles
 SCF Done:  E(RB3LYP) =  -1340.69213227     A.U. after   17 cycles
 SCF Done:  E(RB3LYP) =  -1340.71349144     A.U. after   13 cycles
 SCF Done:  E(RB3LYP) =  -1340.71377786     A.U. after   13 cycles
 SCF Done:  E(RB3LYP) =  -1340.71384379     A.U. after   13 cycles
 SCF Done:  E(RB3LYP) =  -1340.71391231     A.U. after   12 cycles
 SCF Done:  E(RB3LYP) =  -1340.71394258     A.U. after   12 cycles
 SCF Done:  E(RB3LYP) =  -1340.71394801     A.U. after   11 cycles
 SCF Done:  E(RB3LYP) =  -1340.71394925     A.U. after    9 cycles
 SCF Done:  E(RB3LYP) =  -1340.71394921     A.U. after    8 cycles
 SCF Done:  E(RB3LYP) =  -1340.71394900     A.U. after    7 cycles
 Optimization completed.
    -- Stationary point found.

                         Standard orientation:
 ---------------------------------------------------------------------
 Center     Atomic      Atomic             Coordinates (Angstroms)
 Number     Number       Type             X           Y           Z
 ---------------------------------------------------------------------
      1          9           0        1.140753    1.494323    0.214133
      2          9           0        1.685315   -3.244600    0.650913
      3          9           0       -2.616781    3.385514    1.033505
      4          8           0       -3.173479   -2.708453   -0.142759
      5          8           0       -5.622438   -1.520694   -0.274991
      6          8           0       -5.704522    0.749237   -0.497801
      7          7           0        2.821941   -0.717248    0.744109
      8          7           0        5.168173    0.456887   -0.412647
      9          7           0       -1.631264    1.128336   -0.340919
     10          6           0        3.412266    0.511626    1.318576
     11          6           0        3.858754   -1.568940    0.105703
     12          6           0        4.142794    1.315721    0.227792
     13          6           0        4.564236   -0.763369   -0.998897
     14          6           0        1.477940   -0.866178    0.444886
     15          6           0       -0.767352    0.054172   -0.060957
     16          6           0        0.604981    0.201257    0.191300
     17          6           0        5.980397    1.202492   -1.394067
     18          6           0        0.877754   -2.153218    0.420329
     19          6           0       -1.307112   -1.244636   -0.023410
     20          6           0       -0.458181   -2.333162    0.198213
     21          6           0       -1.173797    2.514252   -0.647810
     22          6           0       -2.762267   -1.532487   -0.163420
     23          6           0       -2.976070    0.903012   -0.376431
     24          6           0       -3.569230   -0.323283   -0.292704
     25          6           0       -1.258801    3.378630    0.601224
     26          6           0       -5.037631   -0.283560   -0.366376
     27          1           0        2.638637    1.111119    1.791435
     28          1           0        4.145601    0.196668    2.069638
     29          1           0        4.598198   -1.835406    0.868895
     30          1           0        3.401191   -2.472966   -0.285203
     31          1           0        3.386428    1.680180   -0.488357
     32          1           0        4.649555    2.176810    0.678042
     33          1           0        5.368157   -1.367347   -1.434591
     34          1           0        3.832829   -0.525081   -1.794954
     35          1           0        6.759326    0.542019   -1.788941
     36          1           0        6.463250    2.046990   -0.891316
     37          1           0        5.389155    1.593051   -2.244034
     38          1           0       -0.905084   -3.317976    0.221833
     39          1           0       -0.161335    2.487557   -1.032616
     40          1           0       -1.844397    2.910435   -1.413073
     41          1           0       -3.604158    1.777570   -0.475200
     42          1           0       -0.616184    2.954259    1.376592
     43          1           0       -0.936411    4.400846    0.376542
     44          1           0       -6.608871   -1.386395   -0.334743
 ---------------------------------------------------------------------

 The electronic state is 1-A.
 Alpha  occ. eigenvalues --  -24.61070 -24.58370 -24.54791 -19.06686 -19.01381
 Alpha  occ. eigenvalues --  -19.00061 -14.34666 -14.29044 -14.25292 -10.25010
 Alpha  occ. eigenvalues --  -10.23740 -10.22546 -10.22126 -10.21234 -10.20862
 Alpha  occ. eigenvalues --  -10.20220 -10.19730 -10.19629 -10.16725 -10.16401
 Alpha  occ. eigenvalues --  -10.15636 -10.15494 -10.15208 -10.14830 -10.14398
 Alpha  occ. eigenvalues --  -10.14067  -1.23731  -1.21784  -1.17889  -1.08967
 Alpha  occ. eigenvalues --   -1.02147  -1.01201  -1.00107  -0.97315  -0.92362
 Alpha  occ. eigenvalues --   -0.88558  -0.83270  -0.80064  -0.78877  -0.78079
 Alpha  occ. eigenvalues --   -0.76544  -0.73256  -0.68952  -0.68083  -0.67193
 Alpha  occ. eigenvalues --   -0.65930  -0.64399  -0.62102  -0.61607  -0.59485
 Alpha  occ. eigenvalues --   -0.56676  -0.56425  -0.55165  -0.52799  -0.52524
 Alpha  occ. eigenvalues --   -0.51489  -0.50728  -0.50183  -0.48883  -0.48203
 Alpha  occ. eigenvalues --   -0.47925  -0.47789  -0.47631  -0.46940  -0.46272
 Alpha  occ. eigenvalues --   -0.45507  -0.45150  -0.44958  -0.44283  -0.44014
 Alpha  occ. eigenvalues --   -0.43537  -0.42349  -0.42244  -0.41435  -0.41314
 Alpha  occ. eigenvalues --   -0.39782  -0.39195  -0.38683  -0.38015  -0.37576
 Alpha  occ. eigenvalues --   -0.37106  -0.36701  -0.36373  -0.35918  -0.35612
 Alpha  occ. eigenvalues --   -0.34483  -0.34387  -0.33857  -0.29955  -0.28721
 Alpha  occ. eigenvalues --   -0.26900  -0.25844  -0.22755  -0.22367  -0.21705
 Alpha  occ. eigenvalues --   -0.20394
 Alpha virt. eigenvalues --   -0.04570  -0.03725   0.00470   0.03833   0.04633
 Alpha virt. eigenvalues --    0.08658   0.10026   0.10307   0.11084   0.11579
 Alpha virt. eigenvalues --    0.12091   0.12202   0.13096   0.13973   0.14449

 Mulliken charges:
               1
     1  F   -0.284867
     2  F   -0.283717
     3  F   -0.283475
     4  O   -0.493896
     5  O   -0.541260
     6  O   -0.513320
     7  N   -0.670753
     8  N   -0.497259
     9  N   -0.824815
    10  C   -0.207330
    11  C   -0.232641
    12  C   -0.202264
    13  C   -0.193651
    14  C    0.293393
    15  C    0.345171
    16  C    0.264438
    17  C   -0.383308
    18  C    0.298262
    19  C   -0.074661
    20  C   -0.198159
    21  C   -0.279398
    22  C    0.412118
    23  C    0.216325
    24  C   -0.208685
    25  C   -0.049997
    26  C    0.665488
    27  H    0.209954
    28  H    0.220364
    29  H    0.218525
    30  H    0.224656
    31  H    0.169777
    32  H    0.195257
    33  H    0.200935
    34  H    0.169284
    35  H    0.197711
    36  H    0.196551
    37  H    0.163106
    38  H    0.245797
    39  H    0.242324
    40  H    0.240075
    41  H    0.268527
    42  H    0.207700
    43  H    0.197390
    44  H    0.360327
 Sum of Mulliken charges =   0.00000

 Dipole moment (field-independent basis, Debye):
    X=              5.8629    Y=              4.5395    Z=             -1.3718  Tot=              7.5407
 Quadrupole moment (field-independent basis, Debye-Ang):
   XX=           -155.0888   YY=           -150.1991   ZZ=           -147.5863
   XY=              1.1392   XZ=             -1.7552   YZ=             -1.2486

 Normal termination of Gaussian 09 at Mon Jul  6 11:02:47 2020.
