 Gaussian 09, Revision D.01,
 Gaussian 09:  ES64L-G09RevD.01 24-Apr-2013

 -----------------------------------
 # opt b3lyp/3-21g geom=connectivity
 -----------------------------------

 -------------------
 Title Card Required
 -------------------
 Symbolic Z-matrix:
 Charge =  0 Multiplicity = 1

 SCF Done:  E(RB3LYP) =  -1506.97498646     A.U. after   17 cycles
 SCF Done:  E(RB3LYP) =  -1507.00852201     A.U. after   14 cycles
 SCF Done:  E(RB3LYP) =  -1507.01843905     A.U. after   14 cycles
 SCF Done:  E(RB3LYP) =  -1507.01959897     A.U. after   14 cycles
 SCF Done:  E(RB3LYP) =  -1507.02038194     A.U. after   13 cycles
 SCF Done:  E(RB3LYP) =  -1507.02032308     A.U. after   13 cycles
 SCF Done:  E(RB3LYP) =  -1507.02094873     A.U. after   13 cycles
 SCF Done:  E(RB3LYP) =  -1507.02084294     A.U. after   13 cycles
 SCF Done:  E(RB3LYP) =  -1507.02119859     A.U. after   12 cycles
 SCF Done:  E(RB3LYP) =  -1507.02129987     A.U. after   12 cycles
 SCF Done:  E(RB3LYP) =  -1507.02133030     A.U. after   12 cycles
 SCF Done:  E(RB3LYP) =  -1507.02134028     A.U. after   11 cycles
 SCF Done:  E(RB3LYP) =  -1507.02134394     A.U. after   11 cycles
 SCF Done:  E(RB3LYP) =  -1507.02134600     A.U. after    9 cycles
 SCF Done:  E(RB3LYP) =  -1507.02134687     A.U. after    8 cycles
 SCF Done:  E(RB3LYP) =  -1507.02134756     A.U. after    9 cycles
 SCF Done:  E(RB3LYP) =  -1507.02134839     A.U. after    9 cycles
 SCF Done:  E(RB3LYP) =  -1507.02134896     A.U. after    9 cycles
 SCF Done:  E(RB3LYP) =  -1507.02134914     A.U. after    8 cycles
 SCF Done:  E(RB3LYP) =  -1507.02134920     A.U. after    7 cycles
 Optimization completed.
    -- Stationary point found.

                         Standard orientation:
 ---------------------------------------------------------------------
 Center     Atomic      Atomic             Coordinates (Angstroms)
 Number     Number       Type             X           Y           Z
 ---------------------------------------------------------------------
      1          7           0        2.840876   -0.954476    0.384881
      2          6           0        3.184997    0.490283    0.516369
      3          6           0        4.699980    0.511696    0.430454
      4          6           0        4.001885   -1.854141    0.652299
      5          6           0        5.201657   -0.936004    0.505181
      6          1           0        2.823175    0.885575    1.474574
      7          1           0        2.696200    1.048882   -0.285256
      8          1           0        4.009772   -2.675773   -0.062459
      9          1           0        3.948658   -2.268606    1.666768
     10          1           0        5.243579    1.313074    0.913275
     11          8           0       -2.945169   -3.539337   -0.165567
     12          8           0       -5.434799   -2.462996   -0.394434
     13          8           0       -5.629866   -0.191055   -0.481891
     14          7           0       -1.587938    0.387231   -0.150277
     15          7           0        0.625607   -0.363628    0.112815
     16          6           0       -0.667624   -0.677154   -0.020582
     17          6           0       -1.157057   -1.986775   -0.031992
     18          6           0       -2.923669    0.093739   -0.246682
     19          6           0       -3.447626   -1.165191   -0.260880
     20          6           0       -2.585373   -2.346345   -0.157838
     21          6           0       -0.202069   -3.009200    0.103429
     22          6           0        1.546695   -1.341965    0.245038
     23          1           0        6.105613   -1.187448    1.046404
     24          6           0        1.120730   -2.703135    0.237576
     25          6           0       -4.914649   -1.195047   -0.388108
     26          1           0       -3.603808    0.931036   -0.317075
     27          1           0       -0.551185   -4.033563    0.103485
     28          1           0       -6.424526   -2.377054   -0.482820
     29          6           0       -0.412880    4.443011   -0.113187
     30          6           0        0.200259    3.568929   -1.003796
     31          6           0       -0.179110    2.230892   -1.019294
     32          6           0       -1.396986    3.997768    0.756014
     33          6           0       -1.757037    2.660106    0.738942
     34          6           0       -1.159968    1.758002   -0.144374
     35          9           0       -0.049930    5.758965   -0.095495
     36          1           0        0.290091    1.540454   -1.702911
     37          9           0        2.058684   -3.703514    0.381370
     38          6           0        5.313881   -0.178352   -0.803202
     39          1           0        7.386092   -0.025518   -0.633283
     40          1           0        6.702181    1.074898   -1.717162
     41          7           0        6.630102    0.148683   -1.294487
     42          1           0        4.601644   -0.462130   -1.575514
     43          1           0       -1.878018    4.677882    1.442359
     44          1           0        0.956389    3.942517   -1.679396
     45          9           0       -2.740303    2.219159    1.580948
 ---------------------------------------------------------------------

 The electronic state is 1-A.
 Alpha  occ. eigenvalues --  -24.59981 -24.59066 -24.58451 -19.06897 -19.01605
 Alpha  occ. eigenvalues --  -19.00007 -14.34956 -14.30123 -14.26630 -14.23605
 Alpha  occ. eigenvalues --  -10.25230 -10.24801 -10.24301 -10.23321 -10.23044
 Alpha  occ. eigenvalues --  -10.22560 -10.20793 -10.20195 -10.20005 -10.17651
 Alpha  occ. eigenvalues --  -10.17175 -10.16999 -10.16962 -10.16400 -10.16076
 Alpha  occ. eigenvalues --  -10.15399 -10.15175 -10.14702 -10.14367 -10.14358
 Alpha  occ. eigenvalues --   -1.23695  -1.22946  -1.21834  -1.09193  -1.03447
 Alpha  occ. eigenvalues --   -1.01624  -1.00401  -0.99895  -0.95220  -0.91022
 Alpha  occ. eigenvalues --   -0.90399  -0.84400  -0.84033  -0.81620  -0.79242
 Alpha  occ. eigenvalues --   -0.79119  -0.76809  -0.75731  -0.71145  -0.69407
 Alpha  occ. eigenvalues --   -0.67141  -0.66034  -0.64743  -0.62762  -0.61689
 Alpha  occ. eigenvalues --   -0.60123  -0.59566  -0.57962  -0.57380  -0.55871
 Alpha  occ. eigenvalues --   -0.55328  -0.54558  -0.53372  -0.52570  -0.51338
 Alpha  occ. eigenvalues --   -0.50604  -0.49619  -0.48789  -0.48672  -0.47974
 Alpha  occ. eigenvalues --   -0.47856  -0.47102  -0.46225  -0.45796  -0.45559
 Alpha  occ. eigenvalues --   -0.45430  -0.45186  -0.44833  -0.44098  -0.43427
 Alpha  occ. eigenvalues --   -0.43215  -0.42817  -0.42451  -0.41693  -0.40383
 Alpha  occ. eigenvalues --   -0.39347  -0.38996  -0.38818  -0.38201  -0.37943
 Alpha  occ. eigenvalues --   -0.37833  -0.37496  -0.36435  -0.36379  -0.32340
 Alpha  occ. eigenvalues --   -0.31489  -0.30006  -0.29263  -0.29112  -0.28396
 Alpha  occ. eigenvalues --   -0.27664  -0.27241  -0.26043  -0.23192  -0.22576
 Alpha  occ. eigenvalues --   -0.21559  -0.20854
 Alpha virt. eigenvalues --   -0.05066  -0.03392  -0.03288  -0.02460   0.00705
 Alpha virt. eigenvalues --    0.03967   0.05911   0.09356   0.10001   0.10249
 Alpha virt. eigenvalues --    0.10492   0.10889   0.11773   0.12066   0.12597

 Mulliken charges:
               1
     1  N   -0.698707
     2  C   -0.142663
     3  C   -0.266344
     4  C   -0.161267
     5  C   -0.259540
     6  H    0.212226
     7  H    0.226036
     8  H    0.235719
     9  H    0.212472
    10  H    0.193464
    11  O   -0.495011
    12  O   -0.540141
    13  O   -0.512429
    14  N   -0.902846
    15  N   -0.712331
    16  C    0.654486
    17  C   -0.104728
    18  C    0.217760
    19  C   -0.207855
    20  C    0.389002
    21  C   -0.146461
    22  C    0.644271
    23  H    0.197646
    24  C    0.239299
    25  C    0.667736
    26  H    0.269924
    27  H    0.249255
    28  H    0.361136
    29  C    0.303573
    30  C   -0.231131
    31  C   -0.145111
    32  C   -0.243962
    33  C    0.306429
    34  C    0.254718
    35  F   -0.285025
    36  H    0.226724
    37  F   -0.286919
    38  C    0.019110
    39  H    0.273655
    40  H    0.272548
    41  N   -0.680683
    42  H    0.208170
    43  H    0.243274
    44  H    0.221363
    45  F   -0.276841
 Sum of Mulliken charges =   0.00000

 Dipole moment (field-independent basis, Debye):
    X=              6.3995    Y=              4.0578    Z=              0.6469  Tot=              7.6051
 Quadrupole moment (field-independent basis, Debye-Ang):
   XX=           -155.3483   YY=           -179.4542   ZZ=           -167.6911
   XY=              0.2509   XZ=              6.4589   YZ=             -2.8601

 Normal termination of Gaussian 09 at Mon Jul  6 12:40:48 2020.
