 Gaussian 09, Revision D.01,
 Gaussian 09:  ES64L-G09RevD.01 24-Apr-2013

 -----------------------------------
 # opt b3lyp/3-21g geom=connectivity
 -----------------------------------

 -------------------
 Title Card Required
 -------------------
 Symbolic Z-matrix:
 Charge =  0 Multiplicity = 1

 SCF Done:  E(RB3LYP) =  -599.675455523     A.U. after   17 cycles
 SCF Done:  E(RB3LYP) =  -599.717931179     A.U. after   15 cycles
 SCF Done:  E(RB3LYP) =  -599.764119973     A.U. after   16 cycles
 SCF Done:  E(RB3LYP) =  -599.768779605     A.U. after   16 cycles
 SCF Done:  E(RB3LYP) =  -599.768855516     A.U. after   17 cycles
 SCF Done:  E(RB3LYP) =  -599.769223121     A.U. after   17 cycles
 SCF Done:  E(RB3LYP) =  -599.771556681     A.U. after   15 cycles
 SCF Done:  E(RB3LYP) =  -599.771756391     A.U. after   14 cycles
 SCF Done:  E(RB3LYP) =  -599.771821274     A.U. after   14 cycles
 SCF Done:  E(RB3LYP) =  -599.771833287     A.U. after   11 cycles
 SCF Done:  E(RB3LYP) =  -599.771834627     A.U. after   10 cycles
 SCF Done:  E(RB3LYP) =  -599.771835112     A.U. after    9 cycles
 Optimization completed.
    -- Stationary point found.

                         Standard orientation:
 ---------------------------------------------------------------------
 Center     Atomic      Atomic             Coordinates (Angstroms)
 Number     Number       Type             X           Y           Z
 ---------------------------------------------------------------------
      1          8           0       -0.256732   -0.655243   -0.000042
      2          8           0       -3.618018    0.458130    0.000163
      3          8           0       -2.717575   -1.665554   -0.000096
      4          8           0        4.380099   -0.628909    0.000035
      5          7           0       -2.639673   -0.385518    0.000002
      6          7           0        3.223442    0.267373    0.000102
      7          6           0        0.860895    0.185177   -0.000051
      8          6           0       -1.353418    0.188477    0.000069
      9          6           0        0.454067    1.502995   -0.000225
     10          6           0       -0.968791    1.501778    0.000063
     11          6           0        2.147997   -0.449660   -0.000019
     12          1           0        1.110347    2.354939   -0.000489
     13          1           0       -1.638123    2.341811    0.000051
     14          1           0        5.131288    0.025828    0.000418
     15          1           0        2.163413   -1.535555   -0.000197
 ---------------------------------------------------------------------

 The electronic state is 1-A.
 Alpha  occ. eigenvalues --  -19.16152 -19.09922 -19.07059 -19.06772 -14.48749
 Alpha  occ. eigenvalues --  -14.33727 -10.25947 -10.23873 -10.19976 -10.18079
 Alpha  occ. eigenvalues --  -10.17257  -1.20579  -1.15975  -1.08822  -1.03711
 Alpha  occ. eigenvalues --   -0.91164  -0.86096  -0.83699  -0.74409  -0.66884
 Alpha  occ. eigenvalues --   -0.61081  -0.59345  -0.55418  -0.54414  -0.53593
 Alpha  occ. eigenvalues --   -0.49428  -0.49128  -0.47745  -0.46624  -0.45521
 Alpha  occ. eigenvalues --   -0.43492  -0.41804  -0.41200  -0.32656  -0.31625
 Alpha  occ. eigenvalues --   -0.30109  -0.29299  -0.28834  -0.28243  -0.24939
 Alpha virt. eigenvalues --   -0.10931  -0.05464   0.03343   0.03949   0.07599
 Alpha virt. eigenvalues --    0.08614   0.10608   0.13332   0.14811   0.16733
 Alpha virt. eigenvalues --    0.18460   0.19478   0.23443   0.29258   0.29864

 Mulliken charges:
               1
     1  O   -0.506642
     2  O   -0.300385
     3  O   -0.279070
     4  O   -0.412435
     5  N    0.002102
     6  N   -0.261539
     7  C    0.300914
     8  C    0.657488
     9  C   -0.205679
    10  C   -0.166049
    11  C    0.070570
    12  H    0.225886
    13  H    0.241471
    14  H    0.379588
    15  H    0.253780
 Sum of Mulliken charges =   0.00000

 Dipole moment (field-independent basis, Debye):
    X=              4.6227    Y=              2.7716    Z=              0.0002  Tot=              5.3899
 Quadrupole moment (field-independent basis, Debye-Ang):
   XX=            -62.4554   YY=            -60.1686   ZZ=            -61.4647
   XY=             -1.2260   XZ=              0.0030   YZ=             -0.0011

 Normal termination of Gaussian 09 at Mon Jul  6 10:41:17 2020.
