 Gaussian 09, Revision D.01,
 Gaussian 09:  ES64L-G09RevD.01 24-Apr-2013

 -----------------------------------
 # opt b3lyp/3-21g geom=connectivity
 -----------------------------------

 -------------------
 Title Card Required
 -------------------
 Symbolic Z-matrix:
 Charge =  0 Multiplicity = 1

 SCF Done:  E(RB3LYP) =  -1255.98227144     A.U. after   17 cycles
 SCF Done:  E(RB3LYP) =  -1256.00880697     A.U. after   14 cycles
 SCF Done:  E(RB3LYP) =  -1256.01738652     A.U. after   16 cycles
 SCF Done:  E(RB3LYP) =  -1256.01974049     A.U. after   14 cycles
 SCF Done:  E(RB3LYP) =  -1256.01982599     A.U. after   15 cycles
 SCF Done:  E(RB3LYP) =  -1256.02175779     A.U. after   14 cycles
 SCF Done:  E(RB3LYP) =  -1256.02213583     A.U. after   14 cycles
 SCF Done:  E(RB3LYP) =  -1256.02258869     A.U. after   13 cycles
 SCF Done:  E(RB3LYP) =  -1256.02262862     A.U. after   13 cycles
 SCF Done:  E(RB3LYP) =  -1256.02270064     A.U. after   12 cycles
 SCF Done:  E(RB3LYP) =  -1256.02273372     A.U. after   12 cycles
 SCF Done:  E(RB3LYP) =  -1256.02272944     A.U. after   11 cycles
 SCF Done:  E(RB3LYP) =  -1256.02274128     A.U. after    9 cycles
 SCF Done:  E(RB3LYP) =  -1256.02274220     A.U. after    8 cycles
 SCF Done:  E(RB3LYP) =  -1256.02274220     A.U. after    7 cycles
 Optimization completed.
    -- Stationary point found.

                         Standard orientation:
 ---------------------------------------------------------------------
 Center     Atomic      Atomic             Coordinates (Angstroms)
 Number     Number       Type             X           Y           Z
 ---------------------------------------------------------------------
      1          6           0        5.663100   -1.100308   -1.576199
      2          1           0        5.283776   -2.068185   -1.923093
      3          1           0        6.571140   -1.286901   -0.969814
      4          1           0        5.945995   -0.508645   -2.453110
      5          7           0        2.674089    0.821163    0.608674
      6          6           0        3.570638    1.721205   -0.174802
      7          6           0        4.901662    0.988343   -0.473445
      8          6           0        3.390515   -0.250412    1.318494
      9          6           0        4.090962   -1.193233    0.312921
     10          7           0        4.597483   -0.405035   -0.841514
     11          6           0        0.089895   -2.516305    1.210543
     12          1           0       -0.219339   -2.190642    2.210064
     13          1           0        0.639205   -3.456339    1.264766
     14          8           0        1.029445   -1.544868    0.629428
     15          8           0       -3.447984    2.445613   -0.326576
     16          8           0       -5.826948    1.121988   -0.451699
     17          8           0       -5.802235   -1.151203   -0.254887
     18          7           0       -1.752535   -1.288175    0.227728
     19          6           0        0.457039   -0.268730    0.442380
     20          6           0       -0.929806   -0.146577    0.247256
     21          6           0       -1.517732    1.111107    0.044177
     22          6           0       -1.128021   -2.639482    0.288652
     23          6           0       -3.089815   -1.148309    0.049987
     24          6           0       -3.730501    0.048184   -0.122243
     25          6           0       -2.977641    1.304241   -0.154371
     26          6           0       -0.691162    2.236378    0.030618
     27          6           0        1.304177    0.861083    0.433872
     28          6           0       -0.719383   -3.119953   -1.114131
     29          6           0        0.658004    2.108812    0.221740
     30          6           0       -5.185933   -0.077314   -0.276591
     31          1           0       -1.861524   -3.316127    0.737896
     32          1           0       -3.686476   -2.053865    0.047820
     33          1           0       -1.148736    3.205406   -0.113234
     34          1           0       -0.351049   -4.150451   -1.061147
     35          1           0       -1.573617   -3.085055   -1.795681
     36          1           0        0.078384   -2.479422   -1.496708
     37          1           0       -6.799994    0.924632   -0.546519
     38          9           0        1.445995    3.240132    0.236052
     39          1           0        3.363593   -1.925165   -0.048377
     40          1           0        4.908729   -1.719733    0.841305
     41          1           0        4.134861    0.222872    1.969997
     42          1           0        2.697253   -0.812705    1.936614
     43          1           0        5.376765    1.479239   -1.329279
     44          1           0        5.597478    1.073148    0.382069
     45          1           0        3.078131    1.948353   -1.121930
     46          1           0        3.764009    2.658094    0.356403
 ---------------------------------------------------------------------

 The electronic state is 1-A.
 Alpha  occ. eigenvalues --  -24.56781 -19.09656 -19.06510 -19.01168 -18.99227
 Alpha  occ. eigenvalues --  -14.34038 -14.27759 -14.24290 -10.24803 -10.21397
 Alpha  occ. eigenvalues --  -10.21099 -10.20895 -10.20574 -10.19611 -10.19515
 Alpha  occ. eigenvalues --  -10.19469 -10.19201 -10.15943 -10.15625 -10.15316
 Alpha  occ. eigenvalues --  -10.14502 -10.14275 -10.13936 -10.13895 -10.13688
 Alpha  occ. eigenvalues --  -10.13051  -1.20260  -1.08774  -1.08389  -1.01406
 Alpha  occ. eigenvalues --   -1.00603  -0.99822  -0.95971  -0.91289  -0.87331
 Alpha  occ. eigenvalues --   -0.83692  -0.80055  -0.78395  -0.76976  -0.75451
 Alpha  occ. eigenvalues --   -0.73300  -0.71839  -0.67996  -0.67081  -0.66136
 Alpha  occ. eigenvalues --   -0.65160  -0.63526  -0.60968  -0.58679  -0.57891
 Alpha  occ. eigenvalues --   -0.55773  -0.54162  -0.53971  -0.52077  -0.51399
 Alpha  occ. eigenvalues --   -0.50871  -0.49352  -0.49014  -0.48326  -0.47608
 Alpha  occ. eigenvalues --   -0.46967  -0.46907  -0.45441  -0.44891  -0.44490
 Alpha  occ. eigenvalues --   -0.44079  -0.43108  -0.42845  -0.42709  -0.41576
 Alpha  occ. eigenvalues --   -0.41541  -0.41278  -0.40835  -0.40160  -0.39593
 Alpha  occ. eigenvalues --   -0.39350  -0.37851  -0.37536  -0.37073  -0.36555
 Alpha  occ. eigenvalues --   -0.36429  -0.35969  -0.35388  -0.35153  -0.34520
 Alpha  occ. eigenvalues --   -0.33694  -0.31341  -0.29030  -0.28160  -0.25702
 Alpha  occ. eigenvalues --   -0.25318  -0.21947  -0.21209  -0.19880  -0.19095
 Alpha virt. eigenvalues --   -0.03930  -0.02764   0.01806   0.04595   0.05544
 Alpha virt. eigenvalues --    0.08662   0.10189   0.10588   0.11360   0.12288
 Alpha virt. eigenvalues --    0.12551   0.12947   0.13306   0.13969   0.14818

 Mulliken charges:
               1
     1  C   -0.378054
     2  H    0.196646
     3  H    0.158638
     4  H    0.194371
     5  N   -0.694997
     6  C   -0.166847
     7  C   -0.234295
     8  C   -0.223772
     9  C   -0.183010
    10  N   -0.500349
    11  C   -0.137933
    12  H    0.223730
    13  H    0.226329
    14  O   -0.540118
    15  O   -0.497743
    16  O   -0.540007
    17  O   -0.521252
    18  N   -0.823314
    19  C    0.288355
    20  C    0.360604
    21  C   -0.073028
    22  C   -0.102236
    23  C    0.214308
    24  C   -0.211336
    25  C    0.405277
    26  C   -0.205471
    27  C    0.324191
    28  C   -0.529566
    29  C    0.292854
    30  C    0.662083
    31  H    0.228611
    32  H    0.253320
    33  H    0.237015
    34  H    0.194963
    35  H    0.213548
    36  H    0.231347
    37  H    0.358861
    38  F   -0.292093
    39  H    0.213542
    40  H    0.155048
    41  H    0.206133
    42  H    0.220414
    43  H    0.206955
    44  H    0.169350
    45  H    0.218094
    46  H    0.200835
 Sum of Mulliken charges =   0.00000

 Dipole moment (field-independent basis, Debye):
    X=              5.1531    Y=             -5.9265    Z=              1.3535  Tot=              7.9693
 Quadrupole moment (field-independent basis, Debye-Ang):
   XX=           -151.3162   YY=           -147.9111   ZZ=           -148.0964
   XY=              6.9433   XZ=             -1.0575   YZ=             -3.8412

 Normal termination of Gaussian 09 at Mon Jul  6 12:29:31 2020.
