 Gaussian 09, Revision D.01,
 Gaussian 09:  ES64L-G09RevD.01 24-Apr-2013

 -----------------------------------------------------
 #opt M06/lanl2dz integral=ultrafine geom=connectivity
 -----------------------------------------------------

 -------------------
 Title Card Required
 -------------------
 Symbolic Z-matrix:
 Charge =  0 Multiplicity = 1

 SCF Done:  E(RM06) =  -1261.97896496     A.U. after   17 cycles
 SCF Done:  E(RM06) =  -1261.98166273     A.U. after   14 cycles
 SCF Done:  E(RM06) =  -1261.98201864     A.U. after   14 cycles
 SCF Done:  E(RM06) =  -1261.98224770     A.U. after   13 cycles
 SCF Done:  E(RM06) =  -1261.98234613     A.U. after   13 cycles
 SCF Done:  E(RM06) =  -1261.98237123     A.U. after   13 cycles
 SCF Done:  E(RM06) =  -1261.98236328     A.U. after   12 cycles
 SCF Done:  E(RM06) =  -1261.98238416     A.U. after   10 cycles
 SCF Done:  E(RM06) =  -1261.98238520     A.U. after    9 cycles
 SCF Done:  E(RM06) =  -1261.98238541     A.U. after    9 cycles
 SCF Done:  E(RM06) =  -1261.98238570     A.U. after    8 cycles
 SCF Done:  E(RM06) =  -1261.98238586     A.U. after    8 cycles
 SCF Done:  E(RM06) =  -1261.98238600     A.U. after    8 cycles
 SCF Done:  E(RM06) =  -1261.98238603     A.U. after    8 cycles
 SCF Done:  E(RM06) =  -1261.98238603     A.U. after    8 cycles
 Optimization completed.
    -- Stationary point found.

                         Standard orientation:
 ---------------------------------------------------------------------
 Center     Atomic      Atomic             Coordinates (Angstroms)
 Number     Number       Type             X           Y           Z
 ---------------------------------------------------------------------
      1          6           0        5.732882    1.162090    1.454460
      2          1           0        5.406872    2.183969    1.682858
      3          1           0        6.662708    1.231271    0.851176
      4          1           0        5.972894    0.663971    2.400584
      5          7           0        2.686942   -0.821749   -0.535336
      6          6           0        3.572467   -1.688226    0.268893
      7          6           0        4.906765   -0.967588    0.530095
      8          6           0        3.392502    0.185757   -1.326899
      9          6           0        4.183192    1.153797   -0.430088
     10          7           0        4.661217    0.451701    0.770317
     11          6           0        0.133517    2.510317   -1.138269
     12          1           0       -0.138539    2.237755   -2.167779
     13          1           0        0.690441    3.449225   -1.135544
     14          8           0        1.035247    1.513574   -0.595015
     15          8           0       -3.491623   -2.437167    0.321619
     16          8           0       -5.898453   -1.064372    0.377037
     17          8           0       -5.810574    1.202334    0.241292
     18          7           0       -1.748458    1.278454   -0.239819
     19          6           0        0.457811    0.249339   -0.434231
     20          6           0       -0.935884    0.127010   -0.251278
     21          6           0       -1.537567   -1.129935   -0.039490
     22          6           0       -1.113140    2.615367   -0.264333
     23          6           0       -3.087933    1.161704   -0.063084
     24          6           0       -3.754710   -0.034667    0.102097
     25          6           0       -3.002177   -1.297657    0.142925
     26          6           0       -0.709669   -2.261567   -0.006693
     27          6           0        1.314063   -0.878230   -0.393455
     28          6           0       -0.786713    3.085085    1.154881
     29          6           0        0.647582   -2.118089   -0.181207
     30          6           0       -5.213104    0.106076    0.244288
     31          1           0       -1.820840    3.305974   -0.739957
     32          1           0       -3.664796    2.085384   -0.054878
     33          1           0       -1.160476   -3.239778    0.129888
     34          1           0       -0.375122    4.100258    1.135011
     35          1           0       -1.688444    3.089584    1.776085
     36          1           0       -0.046659    2.422735    1.616490
     37          1           0       -6.858718   -0.875450    0.465744
     38          9           0        1.420297   -3.275265   -0.213666
     39          1           0        3.546378    1.992230   -0.121861
     40          1           0        5.031725    1.562269   -1.021388
     41          1           0        4.081156   -0.344759   -2.002100
     42          1           0        2.688263    0.738623   -1.948039
     43          1           0        5.366542   -1.409020    1.421997
     44          1           0        5.615850   -1.137310   -0.308888
     45          1           0        3.079149   -1.883368    1.227950
     46          1           0        3.754941   -2.653471   -0.221631
 ---------------------------------------------------------------------

 The electronic state is 1-A.
 Alpha  occ. eigenvalues --  -24.79493 -19.27809 -19.25897 -19.21190 -19.18568
 Alpha  occ. eigenvalues --  -14.48757 -14.42464 -14.39159 -10.40121 -10.34898
 Alpha  occ. eigenvalues --  -10.34442 -10.34100 -10.34081 -10.34055 -10.33624
 Alpha  occ. eigenvalues --  -10.33184 -10.33007 -10.28974 -10.28411 -10.28202
 Alpha  occ. eigenvalues --  -10.27556 -10.27534 -10.27494 -10.26914 -10.26855
 Alpha  occ. eigenvalues --  -10.26679  -1.24768  -1.13259  -1.12180  -1.04222
 Alpha  occ. eigenvalues --   -1.03990  -1.03074  -0.98163  -0.93486  -0.89204
 Alpha  occ. eigenvalues --   -0.85538  -0.82106  -0.80385  -0.78490  -0.77408
 Alpha  occ. eigenvalues --   -0.75008  -0.73567  -0.69974  -0.68820  -0.67880
 Alpha  occ. eigenvalues --   -0.66740  -0.65182  -0.63831  -0.60218  -0.59453
 Alpha  occ. eigenvalues --   -0.57813  -0.56242  -0.55466  -0.53935  -0.53115
 Alpha  occ. eigenvalues --   -0.52858  -0.50895  -0.50845  -0.50204  -0.49530
 Alpha  occ. eigenvalues --   -0.48864  -0.48780  -0.47835  -0.47352  -0.46801
 Alpha  occ. eigenvalues --   -0.46299  -0.45801  -0.44454  -0.44121  -0.43503
 Alpha  occ. eigenvalues --   -0.43350  -0.42980  -0.42750  -0.41936  -0.41232
 Alpha  occ. eigenvalues --   -0.40917  -0.39898  -0.39397  -0.39201  -0.38901
 Alpha  occ. eigenvalues --   -0.38296  -0.37674  -0.37504  -0.37096  -0.35851
 Alpha  occ. eigenvalues --   -0.35737  -0.33683  -0.32497  -0.30542  -0.28823
 Alpha  occ. eigenvalues --   -0.27704  -0.24335  -0.23725  -0.21792  -0.21127
 Alpha virt. eigenvalues --   -0.05512  -0.04248   0.00422   0.03004   0.05107
 Alpha virt. eigenvalues --    0.08933   0.09757   0.10041   0.10535   0.10907
 Alpha virt. eigenvalues --    0.11314   0.11836   0.12588   0.13230   0.13763

 Mulliken charges:
               1
     1  C   -0.593380
     2  H    0.219719
     3  H    0.184692
     4  H    0.218056
     5  N   -0.235521
     6  C   -0.301738
     7  C   -0.380925
     8  C   -0.393205
     9  C   -0.339348
    10  N   -0.118441
    11  C   -0.336562
    12  H    0.231152
    13  H    0.228611
    14  O   -0.353892
    15  O   -0.286683
    16  O   -0.451101
    17  O   -0.358880
    18  N   -0.235384
    19  C    0.188085
    20  C    0.258699
    21  C    0.245867
    22  C   -0.072110
    23  C   -0.285715
    24  C    0.077670
    25  C    0.140404
    26  C   -0.660449
    27  C    0.158452
    28  C   -0.635317
    29  C    0.302503
    30  C    0.201785
    31  H    0.233592
    32  H    0.276992
    33  H    0.297550
    34  H    0.215372
    35  H    0.229774
    36  H    0.245014
    37  H    0.406581
    38  F   -0.259967
    39  H    0.246517
    40  H    0.170232
    41  H    0.219063
    42  H    0.243306
    43  H    0.225612
    44  H    0.184347
    45  H    0.225084
    46  H    0.223885
 Sum of Mulliken charges =   0.00000

 Dipole moment (field-independent basis, Debye):
    X=              6.3905    Y=              6.9595    Z=             -1.5371  Tot=              9.5726
 Quadrupole moment (field-independent basis, Debye-Ang):
   XX=           -154.5456   YY=           -151.7013   ZZ=           -146.9446
   XY=             -6.8479   XZ=              1.1986   YZ=             -3.7252

 Normal termination of Gaussian 09 at Tue Jul 21 17:02:28 2020.
