 Gaussian 09, Revision D.01,
 Gaussian 09:  ES64L-G09RevD.01 24-Apr-2013

 -----------------------------------
 # opt b3lyp/3-21g geom=connectivity
 -----------------------------------

 -------------------
 Title Card Required
 -------------------
 Symbolic Z-matrix:
 Charge =  0 Multiplicity = 1

 SCF Done:  E(RB3LYP) =  -1775.09504233     A.U. after   17 cycles

 The electronic state is 1-A.
 Alpha  occ. eigenvalues -- -100.83884 -24.58440 -24.56357 -19.07413 -19.02132
 Alpha  occ. eigenvalues --  -19.00803 -14.35264 -14.27682 -14.21805 -10.25761
 Alpha  occ. eigenvalues --  -10.23475 -10.22532 -10.21718 -10.21593 -10.20831
 Alpha  occ. eigenvalues --  -10.20601 -10.20385 -10.20331 -10.16416 -10.15990
 Alpha  occ. eigenvalues --  -10.15907 -10.15820 -10.15666 -10.14785 -10.14512
 Alpha  occ. eigenvalues --  -10.14433 -10.13399 -10.13029  -9.40361  -7.17728
 Alpha  occ. eigenvalues --   -7.16546  -7.16530  -1.21836  -1.19862  -1.09714
 Alpha  occ. eigenvalues --   -1.02891  -1.02025  -1.00875  -0.96462  -0.91078
 Alpha  occ. eigenvalues --   -0.89908  -0.87642  -0.85809  -0.85374  -0.81943
 Alpha  occ. eigenvalues --   -0.78986  -0.76486  -0.73378  -0.71826  -0.69263
 Alpha  occ. eigenvalues --   -0.66848  -0.66117  -0.63737  -0.61879  -0.61081
 Alpha  occ. eigenvalues --   -0.60763  -0.60575  -0.57152  -0.56548  -0.56043
 Alpha  occ. eigenvalues --   -0.55350  -0.54308  -0.52644  -0.52091  -0.49673
 Alpha  occ. eigenvalues --   -0.49496  -0.48545  -0.48313  -0.47607  -0.46444
 Alpha  occ. eigenvalues --   -0.46140  -0.45644  -0.45403  -0.44944  -0.44747
 Alpha  occ. eigenvalues --   -0.44339  -0.44284  -0.43275  -0.42511  -0.42151
 Alpha  occ. eigenvalues --   -0.41662  -0.40615  -0.40177  -0.39602  -0.38605
 Alpha  occ. eigenvalues --   -0.37932  -0.37712  -0.37485  -0.37331  -0.36803
 Alpha  occ. eigenvalues --   -0.36684  -0.35276  -0.33891  -0.33182  -0.31725
 Alpha  occ. eigenvalues --   -0.30738  -0.30471  -0.29604  -0.29295  -0.28178
 Alpha  occ. eigenvalues --   -0.26804  -0.26587  -0.23383  -0.22800  -0.21874
 Alpha  occ. eigenvalues --   -0.20361
 Alpha virt. eigenvalues --   -0.05576  -0.04245  -0.02151   0.01002   0.03151
 Alpha virt. eigenvalues --    0.06827   0.09214   0.09880   0.10243   0.10500
 Alpha virt. eigenvalues --    0.10677   0.10894   0.11402   0.12081   0.13112

 Mulliken charges:
               1
     1  Cl   0.105917
     2  F   -0.265559
     3  F   -0.281553
     4  O   -0.488762
     5  O   -0.539980
     6  O   -0.513750
     7  N   -0.682684
     8  N   -0.647591
     9  N   -0.825710
    10  C   -0.128324
    11  C   -0.369659
    12  C   -0.343136
    13  C   -0.093647
    14  C   -0.176581
    15  C   -0.171045
    16  C    0.331935
    17  C   -0.094084
    18  C    0.125134
    19  C   -0.430856
    20  C   -0.265809
    21  C    0.387845
    22  C    0.300591
    23  C   -0.069892
    24  C   -0.197784
    25  C    0.218706
    26  C    0.415421
    27  C   -0.204960
    28  C    0.667003
    29  H    0.199494
    30  H    0.204262
    31  H    0.204915
    32  H    0.200680
    33  H    0.196272
    34  H    0.218460
    35  H    0.203336
    36  H    0.232747
    37  H    0.202973
    38  H    0.260771
    39  H    0.283602
    40  H    0.248190
    41  H    0.221891
    42  H    0.254882
    43  H    0.229470
    44  H    0.246906
    45  H    0.267378
    46  H    0.362587
 Sum of Mulliken charges =   0.00000

 Dipole moment (field-independent basis, Debye):
    X=             -2.7743    Y=              3.7809    Z=             -0.6109  Tot=              4.7291
 Quadrupole moment (field-independent basis, Debye-Ang):
   XX=           -159.0599   YY=           -166.0220   ZZ=           -167.3748
   XY=             14.7838   XZ=              2.3501   YZ=              3.8489

 Optimization completed.
    -- Stationary point found.

                         Standard orientation:
 ---------------------------------------------------------------------
 Center     Atomic      Atomic             Coordinates (Angstroms)
 Number     Number       Type             X           Y           Z
 ---------------------------------------------------------------------
      1         17           0       -0.812095    1.938882   -1.055606
      2          9           0        1.027169    1.992283    2.006348
      3          9           0       -1.711643   -2.814774    0.691448
      4          8           0        3.191602   -2.906032    0.310834
      5          8           0        5.743489   -2.153614   -0.273062
      6          8           0        6.137407    0.055528   -0.692150
      7          7           0       -2.585395   -0.243755   -0.079263
      8          7           0       -4.553036    1.750723   -1.015067
      9          7           0        2.181624    1.056544   -0.348929
     10          6           0       -4.924930   -0.589210   -0.111845
     11          6           0       -6.275736   -1.069193   -0.591880
     12          6           0       -5.811194   -1.381309    0.835651
     13          6           0       -4.632185    0.887990    0.181320
     14          6           0       -3.616135   -1.190312   -0.620723
     15          6           0       -3.223717    0.792024    0.795731
     16          6           0       -1.236241   -0.561666    0.001739
     17          6           0        1.976300    2.497675   -0.223124
     18          6           0        1.373745    2.973567    1.078999
     19          6           0        2.835557    3.218214    0.830747
     20          6           0       -0.228980    0.373783   -0.292570
     21          6           0        1.146938    0.109977   -0.171251
     22          6           0       -0.782947   -1.856158    0.354273
     23          6           0        1.521328   -1.227053    0.088118
     24          6           0        0.543557   -2.189153    0.344348
     25          6           0        3.474079    0.620409   -0.432714
     26          6           0        2.934178   -1.712508    0.067279
     27          6           0        3.889446   -0.667473   -0.275683
     28          6           0        5.340592   -0.854745   -0.435948
     29          1           0       -7.062108   -0.331412   -0.715195
     30          1           0       -6.302295   -1.888511   -1.302109
     31          1           0       -5.526271   -2.402770    1.060321
     32          1           0       -6.288710   -0.843258    1.647345
     33          1           0       -5.355674    1.303846    0.889743
     34          1           0       -3.461474   -2.206323   -0.261128
     35          1           0       -3.572594   -1.179308   -1.716923
     36          1           0       -2.698663    1.743710    0.728243
     37          1           0       -3.271613    0.449405    1.837178
     38          1           0       -5.389572    1.663252   -1.600640
     39          1           0       -3.716165    1.520446   -1.560518
     40          1           0        1.715629    3.024206   -1.129673
     41          1           0        0.671599    3.796225    1.037726
     42          1           0        3.518921    2.600479    1.399999
     43          1           0        3.166634    4.224104    0.607768
     44          1           0        0.877524   -3.193666    0.566912
     45          1           0        4.223733    1.377661   -0.623183
     46          1           0        6.732714   -2.177458   -0.397685
 ---------------------------------------------------------------------

 Normal termination of Gaussian 09 at Tue Jul 13 13:59:20 2021.
