 Gaussian 09, Revision D.01,
 Gaussian 09:  ES64L-G09RevD.01 24-Apr-2013

 -----------------------------------
 # opt b3lyp/3-21g geom=connectivity
 -----------------------------------

 -------------------
 Title Card Required
 -------------------
 Symbolic Z-matrix:
 Charge =  0 Multiplicity = 1

 SCF Done:  E(RB3LYP) =  -1374.04047190     A.U. after   17 cycles
 SCF Done:  E(RB3LYP) =  -1374.04695321     A.U. after   16 cycles
 SCF Done:  E(RB3LYP) =  -1374.04854431     A.U. after   15 cycles
 SCF Done:  E(RB3LYP) =  -1374.04924601     A.U. after   13 cycles
 SCF Done:  E(RB3LYP) =  -1374.04987506     A.U. after   13 cycles
 SCF Done:  E(RB3LYP) =  -1374.05007892     A.U. after   13 cycles
 SCF Done:  E(RB3LYP) =  -1374.05041931     A.U. after   13 cycles
 SCF Done:  E(RB3LYP) =  -1374.05066695     A.U. after   13 cycles
 SCF Done:  E(RB3LYP) =  -1374.05055357     A.U. after   13 cycles
 SCF Done:  E(RB3LYP) =  -1374.05084781     A.U. after   13 cycles
 SCF Done:  E(RB3LYP) =  -1374.05090449     A.U. after   13 cycles
 SCF Done:  E(RB3LYP) =  -1374.05092717     A.U. after   12 cycles
 SCF Done:  E(RB3LYP) =  -1374.05093150     A.U. after   10 cycles
 SCF Done:  E(RB3LYP) =  -1374.05093556     A.U. after    9 cycles
 SCF Done:  E(RB3LYP) =  -1374.05093626     A.U. after    8 cycles
 SCF Done:  E(RB3LYP) =  -1374.05093682     A.U. after    8 cycles
 Optimization completed.
    -- Stationary point found.

                         Standard orientation:
 ---------------------------------------------------------------------
 Center     Atomic      Atomic             Coordinates (Angstroms)
 Number     Number       Type             X           Y           Z
 ---------------------------------------------------------------------
      1          9           0        0.532865    1.972518   -1.046234
      2          9           0        1.919943   -2.488909    0.076052
      3          8           0       -3.113614   -2.619169    0.530979
      4          8           0       -5.673055   -1.838199    0.413798
      5          8           0       -6.095178    0.361035   -0.013384
      6          7           0       -2.147678    1.301763   -0.395533
      7          7           0        2.585870    0.164792   -0.783634
      8          7           0        5.089522    0.131155    0.668754
      9          7           0       -0.611351   -3.241958    0.440260
     10          6           0       -1.885498    2.734939   -0.577185
     11          6           0       -1.221475    3.494113    0.547552
     12          6           0       -2.698399    3.725626    0.244358
     13          6           0       -1.102360    0.351493   -0.328980
     14          6           0        4.032212    1.131379    0.983370
     15          6           0        4.560645   -1.114016    0.044833
     16          6           0        3.144229    1.432829   -0.247191
     17          6           0        3.645486   -0.799929   -1.163851
     18          6           0        1.286086   -0.226930   -0.492773
     19          6           0       -3.433173    0.892681   -0.252707
     20          6           0       -1.434401   -0.992287    0.001855
     21          6           0        0.216665    0.689089   -0.612728
     22          6           0       -0.381041   -1.950299    0.107864
     23          6           0       -3.820058   -0.384869    0.027760
     24          6           0        0.932299   -1.519718   -0.113082
     25          6           0       -2.822660   -1.430548    0.217946
     26          6           0        4.692709    2.408672    1.521514
     27          6           0        5.736171   -2.013381   -0.359717
     28          6           0       -5.275699   -0.555649    0.133638
     29          1           0       -1.618015    3.009380   -1.588218
     30          1           0       -0.499411    4.250705    0.269333
     31          1           0       -0.990577    2.931583    1.443670
     32          1           0       -3.410652    3.335091    0.959889
     33          1           0       -2.992059    4.644300   -0.247970
     34          1           0        3.394263    0.687031    1.757452
     35          1           0        3.937781   -1.620513    0.787051
     36          1           0        2.331770    2.112955   -0.004576
     37          1           0        3.766683    1.893305   -1.028290
     38          1           0        4.247977   -0.327891   -1.953452
     39          1           0        3.190141   -1.707274   -1.555333
     40          1           0       -4.200414    1.647310   -0.361154
     41          1           0        5.796271    0.557124    0.050785
     42          1           0        5.351101    2.152707    2.356212
     43          1           0        5.294626    2.884811    0.736542
     44          1           0        3.939237    3.127106    1.861508
     45          1           0        5.379244   -2.982536   -0.723869
     46          1           0        6.322877   -1.538821   -1.157274
     47          1           0        6.388479   -2.171043    0.503801
     48          1           0       -1.595480   -3.487971    0.605782
     49          1           0        0.170314   -3.880176    0.505007
     50          1           0       -6.669609   -1.828442    0.459822
 ---------------------------------------------------------------------

 The electronic state is 1-A.
 Alpha  occ. eigenvalues --  -24.58089 -24.57997 -19.06551 -19.01176 -19.00250
 Alpha  occ. eigenvalues --  -14.34197 -14.28047 -14.24895 -14.23180 -10.24877
 Alpha  occ. eigenvalues --  -10.21074 -10.20403 -10.20369 -10.20152 -10.19523
 Alpha  occ. eigenvalues --  -10.19301 -10.19267 -10.18889 -10.15553 -10.15442
 Alpha  occ. eigenvalues --  -10.15408 -10.15125 -10.14907 -10.14633 -10.14418
 Alpha  occ. eigenvalues --  -10.13678 -10.11755 -10.11408  -1.21082  -1.20816
 Alpha  occ. eigenvalues --   -1.08838  -1.01978  -1.00953  -0.99883  -0.96190
 Alpha  occ. eigenvalues --   -0.92736  -0.90147  -0.88735  -0.85204  -0.81109
 Alpha  occ. eigenvalues --   -0.79718  -0.78019  -0.74311  -0.72358  -0.70447
 Alpha  occ. eigenvalues --   -0.69653  -0.67880  -0.65928  -0.63678  -0.62461
 Alpha  occ. eigenvalues --   -0.61184  -0.60687  -0.59456  -0.59210  -0.57139
 Alpha  occ. eigenvalues --   -0.55895  -0.54684  -0.53375  -0.52056  -0.51491
 Alpha  occ. eigenvalues --   -0.50388  -0.49531  -0.48509  -0.47860  -0.47588
 Alpha  occ. eigenvalues --   -0.46754  -0.46259  -0.45825  -0.45284  -0.44619
 Alpha  occ. eigenvalues --   -0.44334  -0.44004  -0.43541  -0.43026  -0.42747
 Alpha  occ. eigenvalues --   -0.42132  -0.41490  -0.40853  -0.40268  -0.39411
 Alpha  occ. eigenvalues --   -0.39163  -0.38761  -0.38324  -0.37828  -0.37276
 Alpha  occ. eigenvalues --   -0.37023  -0.36544  -0.36178  -0.35332  -0.34425
 Alpha  occ. eigenvalues --   -0.33892  -0.33509  -0.32821  -0.32095  -0.31244
 Alpha  occ. eigenvalues --   -0.29250  -0.28004  -0.25717  -0.23361  -0.22954
 Alpha  occ. eigenvalues --   -0.22182  -0.19115  -0.18493
 Alpha virt. eigenvalues --   -0.03671  -0.02896   0.02622   0.04387   0.06185
 Alpha virt. eigenvalues --    0.09736   0.10084   0.10286   0.11287   0.11445
 Alpha virt. eigenvalues --    0.11788   0.12085   0.12751   0.13583   0.14136

 Mulliken charges:
               1
     1  F   -0.287324
     2  F   -0.294186
     3  O   -0.533517
     4  O   -0.541234
     5  O   -0.519411
     6  N   -0.841783
     7  N   -0.671325
     8  N   -0.539713
     9  N   -0.864282
    10  C   -0.047766
    11  C   -0.373397
    12  C   -0.406346
    13  C    0.339415
    14  C   -0.079489
    15  C   -0.089981
    16  C   -0.210621
    17  C   -0.188071
    18  C    0.297857
    19  C    0.223550
    20  C   -0.082556
    21  C    0.263409
    22  C    0.346841
    23  C   -0.204584
    24  C    0.257901
    25  C    0.424146
    26  C   -0.548369
    27  C   -0.551416
    28  C    0.663784
    29  H    0.237100
    30  H    0.216470
    31  H    0.226171
    32  H    0.228467
    33  H    0.221113
    34  H    0.209245
    35  H    0.215750
    36  H    0.215183
    37  H    0.188733
    38  H    0.189758
    39  H    0.213932
    40  H    0.266259
    41  H    0.254635
    42  H    0.212789
    43  H    0.179258
    44  H    0.187348
    45  H    0.191667
    46  H    0.176545
    47  H    0.210582
    48  H    0.352032
    49  H    0.307651
    50  H    0.357779
 Sum of Mulliken charges =   0.00000

 Dipole moment (field-independent basis, Debye):
    X=              3.4985    Y=              3.2493    Z=             -0.8119  Tot=              4.8432
 Quadrupole moment (field-independent basis, Debye-Ang):
   XX=           -167.0775   YY=           -150.0353   ZZ=           -164.2183
   XY=             -3.8601   XZ=             -6.0480   YZ=              0.7976

 Normal termination of Gaussian 09 at Mon Jul  6 12:13:27 2020.
