 Gaussian 09, Revision D.01,
 Gaussian 09:  ES64L-G09RevD.01 24-Apr-2013

 -----------------------------------
 # opt b3lyp/3-21g geom=connectivity
 -----------------------------------

 -------------------
 Title Card Required
 -------------------
 Symbolic Z-matrix:
 Charge =  0 Multiplicity = 1

 SCF Done:  E(RB3LYP) =  -1120.18942525     A.U. after   17 cycles
 SCF Done:  E(RB3LYP) =  -1120.19461074     A.U. after   16 cycles
 SCF Done:  E(RB3LYP) =  -1120.19470091     A.U. after   13 cycles
 SCF Done:  E(RB3LYP) =  -1120.19671690     A.U. after   13 cycles
 SCF Done:  E(RB3LYP) =  -1120.19708448     A.U. after   13 cycles
 SCF Done:  E(RB3LYP) =  -1120.19690851     A.U. after   14 cycles
 SCF Done:  E(RB3LYP) =  -1120.19761840     A.U. after   13 cycles
 SCF Done:  E(RB3LYP) =  -1120.19790993     A.U. after   13 cycles
 SCF Done:  E(RB3LYP) =  -1120.19797686     A.U. after   13 cycles
 SCF Done:  E(RB3LYP) =  -1120.19820153     A.U. after   12 cycles
 SCF Done:  E(RB3LYP) =  -1120.19827791     A.U. after   10 cycles
 SCF Done:  E(RB3LYP) =  -1120.19828957     A.U. after   12 cycles
 SCF Done:  E(RB3LYP) =  -1120.19807530     A.U. after   15 cycles
 SCF Done:  E(RB3LYP) =  -1120.19839158     A.U. after   12 cycles
 SCF Done:  E(RB3LYP) =  -1120.19829704     A.U. after   13 cycles
 SCF Done:  E(RB3LYP) =  -1120.19845392     A.U. after   13 cycles
 SCF Done:  E(RB3LYP) =  -1120.19834033     A.U. after   13 cycles
 SCF Done:  E(RB3LYP) =  -1120.19848044     A.U. after   12 cycles
 SCF Done:  E(RB3LYP) =  -1120.19848159     A.U. after   10 cycles
 SCF Done:  E(RB3LYP) =  -1120.19848234     A.U. after    8 cycles
 Optimization completed.
    -- Stationary point found.

                         Standard orientation:
 ---------------------------------------------------------------------
 Center     Atomic      Atomic             Coordinates (Angstroms)
 Number     Number       Type             X           Y           Z
 ---------------------------------------------------------------------
      1          9           0        1.922309   -2.983004    0.166365
      2          8           0       -3.032628   -2.374160   -0.330560
      3          8           0       -5.442213   -1.089149   -0.388729
      4          8           0       -5.468931    1.171265   -0.077049
      5          7           0        2.937631   -0.271405    0.576717
      6          7           0        5.286213    0.743772   -0.641083
      7          7           0       -1.410847    1.383963    0.363876
      8          7           0        0.742289    0.469053    0.441849
      9          6           0        3.375767    1.120043    0.835258
     10          6           0        4.074505   -1.176232    0.278827
     11          6           0        4.139589    1.649148   -0.392343
     12          6           0        4.839112   -0.634688   -0.945331
     13          6           0        1.613904   -0.564106    0.396091
     14          6           0       -0.572417    0.264238    0.290492
     15          6           0       -1.144280   -0.991692    0.060635
     16          6           0        1.088403   -1.879080    0.189390
     17          6           0       -0.253050   -2.072707    0.017178
     18          6           0       -0.830429    2.740057    0.569158
     19          6           0       -2.592304   -1.225859   -0.124265
     20          6           0       -2.749484    1.213636    0.200543
     21          6           0       -3.367892    0.014429   -0.029859
     22          6           0       -0.273833    3.323197   -0.741190
     23          6           0       -4.828156    0.115641   -0.160249
     24          1           0        4.057848    1.106341    1.692176
     25          1           0        2.494057    1.720085    1.045901
     26          1           0        3.706416   -2.179101    0.103263
     27          1           0        4.752496   -1.164719    1.139114
     28          1           0        3.432645    1.705714   -1.240422
     29          1           0        4.521511    2.653193   -0.180762
     30          1           0        5.719085   -1.260523   -1.126056
     31          1           0        4.171594   -0.695126   -1.824640
     32          1           0        5.912171    1.109815   -1.363970
     33          1           0       -0.658816   -3.063301   -0.143316
     34          1           0       -1.629319    3.368077    0.971554
     35          1           0       -0.036798    2.643775    1.310706
     36          1           0       -3.370048    2.099767    0.263967
     37          1           0        0.536005    2.686962   -1.105845
     38          1           0       -1.059032    3.380154   -1.501157
     39          1           0        0.117138    4.330776   -0.562291
     40          1           0       -6.421167   -0.912335   -0.460314
 ---------------------------------------------------------------------

 The electronic state is 1-A.
 Alpha  occ. eigenvalues --  -24.58441 -19.06556 -19.01229 -18.99309 -14.33516
 Alpha  occ. eigenvalues --  -14.29904 -14.26482 -14.24505 -10.24850 -10.23472
 Alpha  occ. eigenvalues --  -10.22430 -10.22385 -10.19636 -10.19513 -10.18449
 Alpha  occ. eigenvalues --  -10.16452 -10.16241 -10.15997 -10.15928 -10.15112
 Alpha  occ. eigenvalues --  -10.14175 -10.13789 -10.12996  -1.21670  -1.08819
 Alpha  occ. eigenvalues --   -1.02556  -1.00936  -0.99992  -0.99102  -0.94365
 Alpha  occ. eigenvalues --   -0.90196  -0.83828  -0.81175  -0.79495  -0.78101
 Alpha  occ. eigenvalues --   -0.76517  -0.72382  -0.68992  -0.67144  -0.65825
 Alpha  occ. eigenvalues --   -0.65426  -0.61714  -0.61199  -0.60048  -0.56478
 Alpha  occ. eigenvalues --   -0.55612  -0.54213  -0.52908  -0.51516  -0.49027
 Alpha  occ. eigenvalues --   -0.48476  -0.48271  -0.47527  -0.47179  -0.46793
 Alpha  occ. eigenvalues --   -0.46047  -0.45091  -0.45040  -0.44506  -0.43060
 Alpha  occ. eigenvalues --   -0.42966  -0.42613  -0.41760  -0.41071  -0.40729
 Alpha  occ. eigenvalues --   -0.39689  -0.39429  -0.37760  -0.37535  -0.37102
 Alpha  occ. eigenvalues --   -0.36830  -0.36345  -0.36028  -0.35324  -0.35024
 Alpha  occ. eigenvalues --   -0.30823  -0.28855  -0.28101  -0.27968  -0.25734
 Alpha  occ. eigenvalues --   -0.23102  -0.22078  -0.21961  -0.20356
 Alpha virt. eigenvalues --   -0.04653  -0.02999   0.00563   0.04317   0.08904
 Alpha virt. eigenvalues --    0.09279   0.09767   0.11248   0.11722   0.12193
 Alpha virt. eigenvalues --    0.12814   0.13673   0.14046   0.14790   0.15583

 Mulliken charges:
               1
     1  F   -0.280302
     2  O   -0.500586
     3  O   -0.540263
     4  O   -0.518702
     5  N   -0.671885
     6  N   -0.564080
     7  N   -0.783051
     8  N   -0.722259
     9  C   -0.200151
    10  C   -0.228625
    11  C   -0.224597
    12  C   -0.218745
    13  C    0.642347
    14  C    0.673027
    15  C   -0.103280
    16  C    0.227787
    17  C   -0.145249
    18  C   -0.211374
    19  C    0.385057
    20  C    0.211939
    21  C   -0.204165
    22  C   -0.561542
    23  C    0.662129
    24  H    0.216444
    25  H    0.236605
    26  H    0.236694
    27  H    0.220088
    28  H    0.175785
    29  H    0.199939
    30  H    0.203457
    31  H    0.173639
    32  H    0.276333
    33  H    0.248655
    34  H    0.213751
    35  H    0.241280
    36  H    0.257687
    37  H    0.219023
    38  H    0.204055
    39  H    0.193919
    40  H    0.359214
 Sum of Mulliken charges =   0.00000

 Dipole moment (field-independent basis, Debye):
    X=              5.5595    Y=              4.2649    Z=             -0.4049  Tot=              7.0187
 Quadrupole moment (field-independent basis, Debye-Ang):
   XX=           -131.4424   YY=           -131.9145   ZZ=           -131.2832
   XY=             -2.4816   XZ=             -6.3379   YZ=              0.0898

 Normal termination of Gaussian 09 at Mon Jul  6 11:17:42 2020.
