 Gaussian 09, Revision D.01,
 Gaussian 09:  ES64L-G09RevD.01 24-Apr-2013

 -----------------------------------------------------
 #opt M06/lanl2dz integral=ultrafine geom=connectivity
 -----------------------------------------------------

 -------------------
 Title Card Required
 -------------------
 Symbolic Z-matrix:
 Charge =  0 Multiplicity = 1

 SCF Done:  E(RM06) =  -1226.06621980     A.U. after   17 cycles
 SCF Done:  E(RM06) =  -1226.06784188     A.U. after   15 cycles
 SCF Done:  E(RM06) =  -1226.06899760     A.U. after   14 cycles
 SCF Done:  E(RM06) =  -1226.06938263     A.U. after   13 cycles
 SCF Done:  E(RM06) =  -1226.06946212     A.U. after   14 cycles
 SCF Done:  E(RM06) =  -1226.06950512     A.U. after   14 cycles
 SCF Done:  E(RM06) =  -1226.06954691     A.U. after   13 cycles
 SCF Done:  E(RM06) =  -1226.06960262     A.U. after   13 cycles
 SCF Done:  E(RM06) =  -1226.06962948     A.U. after   13 cycles
 SCF Done:  E(RM06) =  -1226.06971059     A.U. after   14 cycles
 SCF Done:  E(RM06) =  -1226.06977064     A.U. after   13 cycles
 SCF Done:  E(RM06) =  -1226.06978927     A.U. after   13 cycles
 SCF Done:  E(RM06) =  -1226.06979349     A.U. after    9 cycles
 SCF Done:  E(RM06) =  -1226.06979408     A.U. after    9 cycles
 SCF Done:  E(RM06) =  -1226.06979428     A.U. after    8 cycles
 SCF Done:  E(RM06) =  -1226.06979433     A.U. after    8 cycles
 SCF Done:  E(RM06) =  -1226.06979432     A.U. after    7 cycles
 Optimization completed.
    -- Stationary point found.

                         Standard orientation:
 ---------------------------------------------------------------------
 Center     Atomic      Atomic             Coordinates (Angstroms)
 Number     Number       Type             X           Y           Z
 ---------------------------------------------------------------------
      1          6           0       -1.176883    2.761419   -0.480148
      2          6           0       -0.314564    3.432526    0.576392
      3          6           0       -1.745136    3.889236    0.358075
      4          1           0       -1.923179    4.837723   -0.134414
      5          1           0       -2.467441    3.638094    1.128162
      6          1           0       -0.107467    2.856274    1.473249
      7          1           0        0.498166    4.068784    0.242149
      8          1           0       -0.947511    2.971632   -1.522300
      9          7           0        2.879289   -0.258773   -0.923015
     10          6           0        3.333209    1.050223   -1.406716
     11          6           0        3.804558    1.929598   -0.239161
     12          7           0        4.852640    1.199138    0.474533
     13          6           0        3.959349   -0.964261   -0.206526
     14          6           0        4.439661   -0.116827    0.982459
     15          1           0        5.370520    1.753418    1.152378
     16          1           0        2.548222    1.534196   -1.994601
     17          1           0        4.192908    0.877411   -2.067278
     18          1           0        4.804889   -1.104924   -0.894999
     19          1           0        3.620641   -1.942712    0.135113
     20          1           0        3.583171   -0.026231    1.687127
     21          1           0        4.213683    2.870777   -0.622893
     22          1           0        2.934587    2.169763    0.409486
     23          8           0       -3.089402   -2.338783    0.689875
     24          8           0       -5.581178   -1.287442    0.036641
     25          8           0       -5.699872    0.954776    0.393624
     26          7           0       -1.650463    1.409375   -0.245936
     27          6           0        0.600230    0.564520   -0.569261
     28          6           0       -0.753285    0.315619   -0.301321
     29          6           0       -1.241659   -0.996941   -0.067382
     30          6           0       -2.984847    1.185142   -0.096313
     31          6           0       -3.534968   -0.054736    0.109720
     32          6           0       -2.670341   -1.233906    0.266551
     33          6           0       -0.314864   -2.079122   -0.158419
     34          6           0        1.538873   -0.480560   -0.631935
     35          6           0        1.010871   -1.783543   -0.441731
     36          6           0       -5.003401   -0.064076    0.214611
     37          1           0       -3.636065    2.053502   -0.143430
     38          6           0       -0.716381   -3.523614   -0.012396
     39          1           0       -6.556509   -1.209682    0.122702
     40          9           0        1.892520   -2.856217   -0.612035
     41          1           0       -1.022963   -3.736540    1.015653
     42          1           0       -1.592522   -3.748456   -0.626158
     43          1           0        0.107082   -4.183812   -0.290138
     44          6           0        5.613595   -0.790345    1.681668
     45          1           0        6.444912   -0.908956    0.975955
     46          1           0        5.329640   -1.777707    2.062279
     47          1           0        5.968538   -0.191003    2.529498
     48          1           0        0.933264    1.585719   -0.698420
 ---------------------------------------------------------------------

 The electronic state is 1-A.
 Alpha  occ. eigenvalues --  -24.79450 -19.25684 -19.21054 -19.18232 -14.48165
 Alpha  occ. eigenvalues --  -14.42962 -14.39328 -10.39908 -10.34014 -10.33846
 Alpha  occ. eigenvalues --  -10.32958 -10.32866 -10.32840 -10.32815 -10.29449
 Alpha  occ. eigenvalues --  -10.29079 -10.29050 -10.28736 -10.28539 -10.28453
 Alpha  occ. eigenvalues --  -10.28335 -10.27185 -10.26905 -10.26658 -10.24437
 Alpha  occ. eigenvalues --  -10.22442  -1.24580  -1.13009  -1.03963  -1.03787
 Alpha  occ. eigenvalues --   -1.02815  -0.98793  -0.92776  -0.90850  -0.88026
 Alpha  occ. eigenvalues --   -0.82987  -0.80830  -0.79750  -0.79034  -0.73628
 Alpha  occ. eigenvalues --   -0.71694  -0.70610  -0.69315  -0.67011  -0.66166
 Alpha  occ. eigenvalues --   -0.64816  -0.63755  -0.62762  -0.60028  -0.59541
 Alpha  occ. eigenvalues --   -0.57533  -0.56346  -0.55936  -0.54089  -0.53072
 Alpha  occ. eigenvalues --   -0.51986  -0.50457  -0.49618  -0.49084  -0.48620
 Alpha  occ. eigenvalues --   -0.48408  -0.47798  -0.47113  -0.46813  -0.46439
 Alpha  occ. eigenvalues --   -0.45231  -0.44570  -0.44340  -0.43478  -0.43294
 Alpha  occ. eigenvalues --   -0.41923  -0.41379  -0.41156  -0.40868  -0.40556
 Alpha  occ. eigenvalues --   -0.39980  -0.39573  -0.38738  -0.38497  -0.38133
 Alpha  occ. eigenvalues --   -0.37523  -0.36961  -0.36779  -0.36264  -0.35400
 Alpha  occ. eigenvalues --   -0.34854  -0.33963  -0.32287  -0.30710  -0.28580
 Alpha  occ. eigenvalues --   -0.27650  -0.24452  -0.23760  -0.23516  -0.21565
 Alpha virt. eigenvalues --   -0.04827  -0.03853   0.00422   0.02781   0.07025
 Alpha virt. eigenvalues --    0.08500   0.09200   0.09750   0.09865   0.10562
 Alpha virt. eigenvalues --    0.10823   0.11414   0.12024   0.12380   0.13035

 Mulliken charges:
               1
     1  C   -0.158158
     2  C   -0.476242
     3  C   -0.517402
     4  H    0.252746
     5  H    0.250974
     6  H    0.249311
     7  H    0.251839
     8  H    0.275948
     9  N   -0.217490
    10  C   -0.398360
    11  C   -0.375095
    12  N   -0.399037
    13  C   -0.403181
    14  C    0.017551
    15  H    0.288995
    16  H    0.210018
    17  H    0.248206
    18  H    0.219121
    19  H    0.255758
    20  H    0.191144
    21  H    0.210889
    22  H    0.186957
    23  O   -0.287132
    24  O   -0.454682
    25  O   -0.351006
    26  N   -0.230922
    27  C   -0.489422
    28  C    0.294981
    29  C    0.091576
    30  C   -0.281551
    31  C    0.114096
    32  C    0.129002
    33  C    0.257832
    34  C    0.353998
    35  C   -0.059741
    36  C    0.179636
    37  H    0.286737
    38  C   -0.776504
    39  H    0.406707
    40  F   -0.262808
    41  H    0.252176
    42  H    0.244188
    43  H    0.234100
    44  C   -0.710856
    45  H    0.217539
    46  H    0.213638
    47  H    0.203251
    48  H    0.260673
 Sum of Mulliken charges =   0.00000

 Dipole moment (field-independent basis, Debye):
    X=              5.7635    Y=              6.6466    Z=             -0.3546  Tot=              8.8046
 Quadrupole moment (field-independent basis, Debye-Ang):
   XX=           -160.2715   YY=           -146.3807   ZZ=           -150.1890
   XY=              1.7247   XZ=             11.0100   YZ=             -2.3687

 Normal termination of Gaussian 09 at Tue Jul 21 17:10:08 2020.
