 Gaussian 09, Revision D.01,
 Gaussian 09:  ES64L-G09RevD.01 24-Apr-2013

 -----------------------------------------------------
 #opt M06/lanl2dz integral=ultrafine geom=connectivity
 -----------------------------------------------------

 -------------------
 Title Card Required
 -------------------
 Symbolic Z-matrix:
 Charge =  0 Multiplicity = 1

 SCF Done:  E(RM06) =  -1261.98037316     A.U. after   17 cycles
 SCF Done:  E(RM06) =  -1261.98284820     A.U. after   15 cycles
 SCF Done:  E(RM06) =  -1261.98332660     A.U. after   14 cycles
 SCF Done:  E(RM06) =  -1261.98349333     A.U. after   13 cycles
 SCF Done:  E(RM06) =  -1261.98356276     A.U. after   13 cycles
 SCF Done:  E(RM06) =  -1261.98355282     A.U. after   13 cycles
 SCF Done:  E(RM06) =  -1261.98357644     A.U. after   11 cycles
 SCF Done:  E(RM06) =  -1261.98357684     A.U. after    9 cycles
 SCF Done:  E(RM06) =  -1261.98357783     A.U. after    8 cycles
 SCF Done:  E(RM06) =  -1261.98357812     A.U. after    8 cycles
 SCF Done:  E(RM06) =  -1261.98357842     A.U. after    9 cycles
 SCF Done:  E(RM06) =  -1261.98357856     A.U. after    8 cycles
 SCF Done:  E(RM06) =  -1261.98357864     A.U. after    8 cycles
 SCF Done:  E(RM06) =  -1261.98357865     A.U. after    7 cycles
 Optimization completed.
    -- Stationary point found.

                         Standard orientation:
 ---------------------------------------------------------------------
 Center     Atomic      Atomic             Coordinates (Angstroms)
 Number     Number       Type             X           Y           Z
 ---------------------------------------------------------------------
      1          9           0        1.691966   -2.859833    0.095789
      2          1           0        5.086155    1.268946   -1.819363
      3          1           0        4.608406   -0.444933   -1.771818
      4          1           0        3.279907    1.812867   -0.172644
      5          1           0        2.640030    1.058386   -1.639898
      6          1           0        4.433084    0.678501    1.793223
      7          1           0        5.482416   -0.744673    1.827131
      8          1           0        3.944695   -1.931107    0.249599
      9          1           0        3.091394   -1.416718    1.713620
     10          6           0        6.750736   -0.414998   -0.303434
     11          1           0        7.271308    0.084580   -1.129363
     12          1           0        6.567005   -1.467122   -0.609377
     13          1           0        7.422630   -0.418080    0.561203
     14          7           0        2.658527   -0.228749    0.024710
     15          6           0        3.599125   -1.051967    0.813520
     16          6           0        4.793993   -0.170293    1.196257
     17          6           0        3.252600    0.879346   -0.749772
     18          6           0        4.666035    0.488459   -1.171240
     19          7           0        5.525108    0.314244    0.009690
     20          6           0       -0.181173    2.779853   -0.676109
     21          1           0        0.246587    3.775367   -0.544732
     22          1           0       -0.266471    2.546592   -1.746973
     23          8           0        0.751800    1.861178   -0.053753
     24          8           0       -3.317600   -2.649440    0.030220
     25          8           0       -5.864523   -1.581379   -0.173831
     26          8           0       -6.050355    0.683610   -0.185483
     27          7           0       -2.002641    1.277140   -0.114315
     28          6           0        0.320677    0.531425   -0.061041
     29          6           0       -1.057869    0.233316   -0.072843
     30          6           0       -1.514832   -1.098187   -0.006627
     31          6           0       -1.543438    2.680461    0.006968
     32          6           0       -3.328059    0.989913   -0.125077
     33          6           0       -3.852614   -0.286062   -0.107682
     34          6           0       -2.957979   -1.450663   -0.027565
     35          6           0       -0.560216   -2.122964    0.079172
     36          6           0        1.300324   -0.486434    0.016977
     37          6           0       -1.483717    3.102305    1.476559
     38          6           0        0.779841   -1.808454    0.085504
     39          6           0       -5.323489   -0.330827   -0.155811
     40          1           0       -2.259182    3.307485   -0.539458
     41          1           0       -4.014168    1.835282   -0.151207
     42          1           0       -0.897744   -3.154554    0.108632
     43          1           0       -1.204335    4.158418    1.558863
     44          1           0       -2.457314    2.963566    1.958149
     45          1           0       -0.738813    2.506423    2.014623
     46          1           0       -6.844504   -1.516293   -0.206665
 ---------------------------------------------------------------------

 The electronic state is 1-A.
 Alpha  occ. eigenvalues --  -24.79815 -19.27749 -19.26036 -19.21335 -19.18771
 Alpha  occ. eigenvalues --  -14.48922 -14.42646 -14.39097 -10.40266 -10.35215
 Alpha  occ. eigenvalues --  -10.34421 -10.34298 -10.34180 -10.34166 -10.33786
 Alpha  occ. eigenvalues --  -10.33369 -10.33103 -10.28983 -10.28791 -10.28010
 Alpha  occ. eigenvalues --  -10.27990 -10.27800 -10.27675 -10.27117 -10.26848
 Alpha  occ. eigenvalues --  -10.26807  -1.25082  -1.13402  -1.12218  -1.04414
 Alpha  occ. eigenvalues --   -1.04140  -1.03231  -0.98161  -0.93434  -0.89349
 Alpha  occ. eigenvalues --   -0.85658  -0.82261  -0.80514  -0.78784  -0.77587
 Alpha  occ. eigenvalues --   -0.74980  -0.73718  -0.70015  -0.69026  -0.67835
 Alpha  occ. eigenvalues --   -0.67273  -0.65147  -0.63896  -0.60310  -0.59223
 Alpha  occ. eigenvalues --   -0.57847  -0.56433  -0.55759  -0.53952  -0.53280
 Alpha  occ. eigenvalues --   -0.52981  -0.52383  -0.50781  -0.50370  -0.49410
 Alpha  occ. eigenvalues --   -0.49028  -0.48150  -0.47857  -0.47558  -0.46896
 Alpha  occ. eigenvalues --   -0.46535  -0.45925  -0.44596  -0.43834  -0.43821
 Alpha  occ. eigenvalues --   -0.43594  -0.43021  -0.42512  -0.41917  -0.41389
 Alpha  occ. eigenvalues --   -0.40916  -0.40013  -0.39719  -0.39193  -0.38887
 Alpha  occ. eigenvalues --   -0.38784  -0.38515  -0.37596  -0.36767  -0.36667
 Alpha  occ. eigenvalues --   -0.35792  -0.33739  -0.32650  -0.30768  -0.28964
 Alpha  occ. eigenvalues --   -0.27885  -0.24528  -0.23914  -0.21904  -0.21136
 Alpha virt. eigenvalues --   -0.05693  -0.04478   0.00177   0.02820   0.05284
 Alpha virt. eigenvalues --    0.08807   0.09691   0.09922   0.10513   0.10879
 Alpha virt. eigenvalues --    0.11323   0.11867   0.12329   0.13315   0.13746

 Mulliken charges:
               1
     1  F   -0.259545
     2  H    0.220369
     3  H    0.176887
     4  H    0.236091
     5  H    0.207656
     6  H    0.223266
     7  H    0.213408
     8  H    0.225547
     9  H    0.223607
    10  C   -0.595369
    11  H    0.222177
    12  H    0.187853
    13  H    0.220205
    14  N   -0.250177
    15  C   -0.315842
    16  C   -0.411444
    17  C   -0.319006
    18  C   -0.363740
    19  N   -0.109968
    20  C   -0.337624
    21  H    0.230952
    22  H    0.229540
    23  O   -0.342718
    24  O   -0.285732
    25  O   -0.451187
    26  O   -0.357980
    27  N   -0.234357
    28  C    0.189048
    29  C    0.250039
    30  C    0.246689
    31  C   -0.070457
    32  C   -0.284171
    33  C    0.077173
    34  C    0.139484
    35  C   -0.655401
    36  C    0.147398
    37  C   -0.634653
    38  C    0.305081
    39  C    0.201931
    40  H    0.233962
    41  H    0.277765
    42  H    0.297971
    43  H    0.216949
    44  H    0.229921
    45  H    0.241384
    46  H    0.407019
 Sum of Mulliken charges =   0.00000

 Dipole moment (field-independent basis, Debye):
    X=              4.6545    Y=              6.5420    Z=             -0.5549  Tot=              8.0480
 Quadrupole moment (field-independent basis, Debye-Ang):
   XX=           -160.6537   YY=           -152.4844   ZZ=           -145.6168
   XY=            -14.0817   XZ=             -1.2723   YZ=             -3.5219

 Normal termination of Gaussian 09 at Tue Jul 21 16:22:29 2020.
