 Gaussian 09, Revision D.01,
 Gaussian 09:  ES64L-G09RevD.01 24-Apr-2013

 -----------------------------------
 # opt b3lyp/3-21g geom=connectivity
 -----------------------------------

 -------------------
 Title Card Required
 -------------------
 Symbolic Z-matrix:
 Charge =  0 Multiplicity = 1

 SCF Done:  E(RB3LYP) =  -795.332445988     A.U. after   17 cycles
 SCF Done:  E(RB3LYP) =  -795.332024399     A.U. after   16 cycles
 SCF Done:  E(RB3LYP) =  -795.334503980     A.U. after   12 cycles
 SCF Done:  E(RB3LYP) =  -795.334457576     A.U. after   14 cycles
 SCF Done:  E(RB3LYP) =  -795.335407467     A.U. after   11 cycles
 SCF Done:  E(RB3LYP) =  -795.334674608     A.U. after   14 cycles
 SCF Done:  E(RB3LYP) =  -795.335700029     A.U. after   11 cycles
 SCF Done:  E(RB3LYP) =  -795.335678798     A.U. after   13 cycles
 SCF Done:  E(RB3LYP) =  -795.335799528     A.U. after    8 cycles
 SCF Done:  E(RB3LYP) =  -795.335826021     A.U. after   12 cycles
 SCF Done:  E(RB3LYP) =  -795.335825537     A.U. after   10 cycles
 SCF Done:  E(RB3LYP) =  -795.335830056     A.U. after    9 cycles
 SCF Done:  E(RB3LYP) =  -795.335829613     A.U. after    9 cycles
 SCF Done:  E(RB3LYP) =  -795.335830850     A.U. after    9 cycles
 SCF Done:  E(RB3LYP) =  -795.335830855     A.U. after    7 cycles
 Optimization completed.
    -- Stationary point found.

                         Standard orientation:
 ---------------------------------------------------------------------
 Center     Atomic      Atomic             Coordinates (Angstroms)
 Number     Number       Type             X           Y           Z
 ---------------------------------------------------------------------
      1          8           0       -1.712235   -2.340103    0.231316
      2          8           0       -3.975598   -1.116958    0.120419
      3          8           0       -3.982573    1.142589   -0.175575
      4          7           0        0.139868    1.328642   -0.287958
      5          7           0        2.260788    0.343739   -0.201132
      6          6           0        0.926188    0.182709   -0.153011
      7          6           0        0.304833   -1.070981    0.021151
      8          6           0        0.795136    2.664266   -0.437045
      9          6           0       -1.213428    1.212151   -0.240603
     10          6           0       -1.872090    0.027585   -0.072455
     11          6           0       -1.150228   -1.209592    0.072166
     12          6           0        1.138874   -2.190101    0.145842
     13          6           0        3.049130   -0.739848   -0.082189
     14          6           0        1.221130    3.234703    0.925628
     15          6           0        2.513408   -2.031144    0.094932
     16          6           0       -3.367355    0.082834   -0.049583
     17          6           0        4.539955   -0.507523   -0.149616
     18          1           0        1.665991    2.521935   -1.076590
     19          1           0        0.070964    3.314588   -0.933372
     20          1           0       -1.807678    2.112368   -0.347784
     21          1           0        0.667732   -3.156157    0.279782
     22          1           0        1.660992    4.228028    0.787054
     23          1           0        0.361311    3.321296    1.596795
     24          1           0        1.969258    2.577730    1.375559
     25          1           0        3.179225   -2.878506    0.189044
     26          1           0        4.840011    0.208337    0.623050
     27          1           0        4.805018   -0.074939   -1.120805
     28          1           0        5.093509   -1.438868   -0.011170
     29          1           0       -3.260989   -1.857064    0.201492
 ---------------------------------------------------------------------

 The electronic state is 1-A.
 Alpha  occ. eigenvalues --  -19.03737 -19.03689 -18.99902 -14.35442 -14.28236
 Alpha  occ. eigenvalues --  -10.24284 -10.23968 -10.22694 -10.21140 -10.20903
 Alpha  occ. eigenvalues --  -10.19301 -10.17233 -10.17076 -10.16076 -10.15172
 Alpha  occ. eigenvalues --  -10.14302 -10.13651  -1.07079  -1.04384  -1.03610
 Alpha  occ. eigenvalues --   -0.99002  -0.97654  -0.85728  -0.82403  -0.82253
 Alpha  occ. eigenvalues --   -0.77787  -0.74697  -0.70115  -0.67635  -0.66342
 Alpha  occ. eigenvalues --   -0.62490  -0.59410  -0.57450  -0.56967  -0.55064
 Alpha  occ. eigenvalues --   -0.51438  -0.50381  -0.49011  -0.47197  -0.47062
 Alpha  occ. eigenvalues --   -0.46700  -0.45196  -0.43580  -0.43336  -0.42088
 Alpha  occ. eigenvalues --   -0.41351  -0.41217  -0.40656  -0.40221  -0.39314
 Alpha  occ. eigenvalues --   -0.38604  -0.37858  -0.36733  -0.33795  -0.31105
 Alpha  occ. eigenvalues --   -0.28805  -0.28685  -0.26665  -0.26254  -0.24534
 Alpha  occ. eigenvalues --   -0.24082
 Alpha virt. eigenvalues --   -0.07635  -0.05028  -0.01575   0.02769   0.09634
 Alpha virt. eigenvalues --    0.10097   0.10613   0.12088   0.12993   0.14078
 Alpha virt. eigenvalues --    0.15521   0.16215   0.16410   0.16669   0.17349

 Mulliken charges:
               1
     1  O   -0.552284
     2  O   -0.597893
     3  O   -0.509470
     4  N   -0.783822
     5  N   -0.658545
     6  C    0.668883
     7  C   -0.069811
     8  C   -0.216816
     9  C    0.215047
    10  C   -0.251379
    11  C    0.391563
    12  C   -0.113718
    13  C    0.292793
    14  C   -0.559638
    15  C   -0.218234
    16  C    0.713296
    17  C   -0.584570
    18  H    0.250037
    19  H    0.218533
    20  H    0.270210
    21  H    0.237117
    22  H    0.201651
    23  H    0.205426
    24  H    0.220389
    25  H    0.200964
    26  H    0.227627
    27  H    0.228541
    28  H    0.200855
    29  H    0.373244
 Sum of Mulliken charges =   0.00000

 Dipole moment (field-independent basis, Debye):
    X=              8.8994    Y=              1.5365    Z=             -0.2054  Tot=              9.0334
 Quadrupole moment (field-independent basis, Debye-Ang):
   XX=           -118.4624   YY=            -89.8934   ZZ=            -98.5826
   XY=             -2.9887   XZ=             -0.0307   YZ=             -0.6473

 Normal termination of Gaussian 09 at Mon Jul  6 19:08:13 2020.
