 Gaussian 09, Revision D.01,
 Gaussian 09:  ES64L-G09RevD.01 24-Apr-2013

 -----------------------------------------------------
 #opt M06/lanl2dz integral=ultrafine geom=connectivity
 -----------------------------------------------------

 -------------------
 Title Card Required
 -------------------
 Symbolic Z-matrix:
 Charge =  0 Multiplicity = 1

 SCF Done:  E(RM06) =  -948.153893419     A.U. after   19 cycles
 SCF Done:  E(RM06) =  -948.155884596     A.U. after   15 cycles
 SCF Done:  E(RM06) =  -948.156091853     A.U. after   14 cycles
 SCF Done:  E(RM06) =  -948.156090577     A.U. after   13 cycles
 SCF Done:  E(RM06) =  -948.156115506     A.U. after   14 cycles
 SCF Done:  E(RM06) =  -948.156118373     A.U. after   11 cycles
 SCF Done:  E(RM06) =  -948.156127393     A.U. after   10 cycles
 SCF Done:  E(RM06) =  -948.156175167     A.U. after   13 cycles
 SCF Done:  E(RM06) =  -948.146964436     A.U. after   16 cycles
 SCF Done:  E(RM06) =  -948.156191205     A.U. after   11 cycles
 SCF Done:  E(RM06) =  -948.157827152     A.U. after   14 cycles
 SCF Done:  E(RM06) =  -948.158324564     A.U. after   14 cycles
 SCF Done:  E(RM06) =  -948.158332146     A.U. after   12 cycles
 SCF Done:  E(RM06) =  -948.158334521     A.U. after   13 cycles
 SCF Done:  E(RM06) =  -948.158334844     A.U. after    9 cycles
 SCF Done:  E(RM06) =  -948.158335038     A.U. after    8 cycles
 SCF Done:  E(RM06) =  -948.158335239     A.U. after    9 cycles
 SCF Done:  E(RM06) =  -948.158335473     A.U. after    9 cycles
 SCF Done:  E(RM06) =  -948.158335920     A.U. after   11 cycles
 SCF Done:  E(RM06) =  -948.158336035     A.U. after    9 cycles
 Optimization completed.
    -- Stationary point found.

                         Standard orientation:
 ---------------------------------------------------------------------
 Center     Atomic      Atomic             Coordinates (Angstroms)
 Number     Number       Type             X           Y           Z
 ---------------------------------------------------------------------
      1          8           0        4.060407    0.610354   -0.061248
      2          8           0        3.764469   -1.711481    0.140085
      3          8           0       -1.412272   -2.567202   -0.047625
      4          8           0       -3.946558   -1.479709    1.033811
      5          8           0       -4.556813   -0.330841   -0.846877
      6          7           0       -0.771095    1.453685   -0.319854
      7          7           0       -2.029890    0.982176   -0.254839
      8          6           0        0.356264    0.636837   -0.189988
      9          6           0        0.166047   -0.763065   -0.064235
     10          6           0        2.707759    0.309998   -0.085235
     11          6           0        1.663264    1.196246   -0.197843
     12          6           0        2.522968   -1.084496    0.034817
     13          6           0        1.271850   -1.642947    0.048145
     14          6           0       -0.693475    2.924128   -0.417609
     15          6           0       -1.187840   -1.333159   -0.058463
     16          6           0       -2.244125   -0.312525   -0.109492
     17          6           0        4.775323   -0.667374    0.032240
     18          6           0       -0.553261    3.571246    0.960233
     19          6           0       -3.686204   -0.692605   -0.054029
     20          1           0        1.847700    2.259706   -0.281906
     21          1           0        1.084080   -2.707415    0.135802
     22          1           0        0.133038    3.192147   -1.083611
     23          1           0       -1.623968    3.235974   -0.896148
     24          1           0        5.394951   -0.663720    0.931631
     25          1           0        5.360515   -0.815234   -0.879638
     26          1           0       -1.413032    3.305330    1.583742
     27          1           0        0.357414    3.241491    1.472920
     28          1           0       -0.518968    4.661080    0.866978
     29          1           0       -4.880135   -1.783050    1.036683
 ---------------------------------------------------------------------

 The electronic state is 1-A.
 Alpha  occ. eigenvalues --  -19.30062 -19.29340 -19.27038 -19.23008 -19.20541
 Alpha  occ. eigenvalues --  -14.51313 -14.48926 -10.41347 -10.40095 -10.36520
 Alpha  occ. eigenvalues --  -10.35575 -10.35372 -10.34986 -10.32002 -10.31710
 Alpha  occ. eigenvalues --  -10.29910 -10.29579 -10.29043 -10.26166  -1.18462
 Alpha  occ. eigenvalues --   -1.14396  -1.09988  -1.09339  -1.05804  -1.05506
 Alpha  occ. eigenvalues --   -0.93017  -0.90300  -0.83309  -0.81020  -0.79528
 Alpha  occ. eigenvalues --   -0.75075  -0.72544  -0.69393  -0.68228  -0.65872
 Alpha  occ. eigenvalues --   -0.63847  -0.62028  -0.58068  -0.56914  -0.55827
 Alpha  occ. eigenvalues --   -0.54362  -0.52734  -0.50695  -0.50149  -0.49752
 Alpha  occ. eigenvalues --   -0.48716  -0.47816  -0.47288  -0.46212  -0.45179
 Alpha  occ. eigenvalues --   -0.44683  -0.43035  -0.42707  -0.41538  -0.41231
 Alpha  occ. eigenvalues --   -0.40523  -0.40368  -0.39196  -0.39165  -0.38952
 Alpha  occ. eigenvalues --   -0.36585  -0.33988  -0.32942  -0.30245  -0.29718
 Alpha  occ. eigenvalues --   -0.27707  -0.25891  -0.24154
 Alpha virt. eigenvalues --   -0.07819  -0.05128  -0.01409   0.00374   0.05711
 Alpha virt. eigenvalues --    0.07172   0.08378   0.09203   0.09422   0.11583
 Alpha virt. eigenvalues --    0.12140   0.12506   0.12798   0.14010   0.15151

 Mulliken charges:
               1
     1  O   -0.329745
     2  O   -0.325509
     3  O   -0.288771
     4  O   -0.459738
     5  O   -0.274877
     6  N   -0.260852
     7  N    0.018845
     8  C    0.462956
     9  C    0.208891
    10  C    0.226546
    11  C   -0.463733
    12  C    0.238450
    13  C   -0.499318
    14  C   -0.337233
    15  C    0.148311
    16  C   -0.122760
    17  C   -0.154799
    18  C   -0.630852
    19  C    0.225990
    20  H    0.258718
    21  H    0.295630
    22  H    0.213130
    23  H    0.264225
    24  H    0.246936
    25  H    0.246169
    26  H    0.237053
    27  H    0.218454
    28  H    0.223182
    29  H    0.414703
 Sum of Mulliken charges =   0.00000

 Dipole moment (field-independent basis, Debye):
    X=              5.3902    Y=              4.5652    Z=              1.0899  Tot=              7.1472
 Quadrupole moment (field-independent basis, Debye-Ang):
   XX=           -100.7562   YY=           -107.2588   ZZ=           -109.5953
   XY=             -1.2893   XZ=             -9.1113   YZ=             -0.4922

 Normal termination of Gaussian 09 at Wed Aug 12 00:46:59 2020.
