 Gaussian 09, Revision D.01,
 Gaussian 09:  ES64L-G09RevD.01 24-Apr-2013

 -----------------------------------------------------
 #opt M06/lanl2dz integral=ultrafine geom=connectivity
 -----------------------------------------------------

 -------------------
 Title Card Required
 -------------------
 Symbolic Z-matrix:
 Charge =  0 Multiplicity = 1

 SCF Done:  E(RM06) =  -1301.21797124     A.U. after   17 cycles
 SCF Done:  E(RM06) =  -1301.22111273     A.U. after   15 cycles
 SCF Done:  E(RM06) =  -1301.22234628     A.U. after   14 cycles
 SCF Done:  E(RM06) =  -1301.22262541     A.U. after   14 cycles
 SCF Done:  E(RM06) =  -1301.22278361     A.U. after   14 cycles
 SCF Done:  E(RM06) =  -1301.22289920     A.U. after   14 cycles
 SCF Done:  E(RM06) =  -1301.22297273     A.U. after   14 cycles
 SCF Done:  E(RM06) =  -1301.22300524     A.U. after   13 cycles
 SCF Done:  E(RM06) =  -1301.22300902     A.U. after   13 cycles
 SCF Done:  E(RM06) =  -1301.22302070     A.U. after   10 cycles
 SCF Done:  E(RM06) =  -1301.22302585     A.U. after   12 cycles
 SCF Done:  E(RM06) =  -1301.22303037     A.U. after   12 cycles
 SCF Done:  E(RM06) =  -1301.22303329     A.U. after   12 cycles
 SCF Done:  E(RM06) =  -1301.22303414     A.U. after    9 cycles
 SCF Done:  E(RM06) =  -1301.22303452     A.U. after    9 cycles
 SCF Done:  E(RM06) =  -1301.22303462     A.U. after    8 cycles
 Optimization completed.
    -- Stationary point found.

                         Standard orientation:
 ---------------------------------------------------------------------
 Center     Atomic      Atomic             Coordinates (Angstroms)
 Number     Number       Type             X           Y           Z
 ---------------------------------------------------------------------
      1          6           0        1.324734    2.583802    0.051725
      2          6           0        0.716419    3.037602   -1.252780
      3          6           0        2.088161    3.548214   -0.840857
      4          1           0        2.187911    4.571094   -0.496720
      5          1           0        2.944765    3.174443   -1.393283
      6          1           0        0.680593    2.310686   -2.058891
      7          1           0       -0.142330    3.695377   -1.197316
      8          1           0        0.886964    2.974792    0.963292
      9          7           0       -2.711378   -0.732973   -0.087602
     10          6           0       -3.605130   -1.840311    0.285949
     11          6           0       -4.764611   -1.279652    1.112381
     12          7           0       -5.434036   -0.226688    0.351040
     13          6           0       -3.388836    0.358730   -0.807856
     14          6           0       -4.563042    0.902636    0.007723
     15          1           0       -6.343068    0.050508    0.713693
     16          1           0       -3.049062   -2.576147    0.873164
     17          1           0       -4.007155   -2.340166   -0.608513
     18          1           0       -3.789943   -0.030929   -1.761068
     19          1           0       -2.675408    1.160229   -1.013688
     20          1           0       -4.139580    1.377889    0.919361
     21          1           0       -5.476753   -2.084599    1.324249
     22          1           0       -4.359368   -0.911952    2.078566
     23          8           0        3.440876   -2.545596   -0.512144
     24          8           0        5.816270   -1.423881    0.416804
     25          8           0        5.886827    0.847973    0.466211
     26          7           0        1.799788    1.205381    0.148609
     27          6           0       -0.470644    0.208959    0.110579
     28          6           0        0.934422    0.096464   -0.008252
     29          6           0        1.511266   -1.173904   -0.245511
     30          6           0        3.140477    0.989120    0.261368
     31          6           0        3.763124   -0.233683    0.138921
     32          6           0        2.979618   -1.415775   -0.228276
     33          6           0        0.671342   -2.273226   -0.483725
     34          6           0       -1.331679   -0.882690   -0.167174
     35          6           0       -0.694050   -2.107814   -0.482738
     36          6           0        5.221287   -0.199091    0.340631
     37          1           0        3.754523    1.866518    0.446393
     38          1           0        6.783778   -1.314922    0.548288
     39          9           0       -1.488286   -3.198430   -0.823456
     40          6           0       -5.344562    1.932982   -0.797434
     41          1           0       -5.740445    1.466797   -1.707899
     42          1           0       -4.705685    2.777017   -1.080857
     43          1           0       -6.190745    2.327440   -0.220947
     44          8           0       -1.044586    1.391867    0.589855
     45          6           0       -1.295361    1.347371    2.021151
     46          1           0       -1.975955    0.521217    2.266687
     47          1           0       -1.758005    2.300477    2.283794
     48          1           0       -0.350362    1.223741    2.570071
     49          1           0        1.126569   -3.234990   -0.702348
 ---------------------------------------------------------------------

 The electronic state is 1-A.
 Alpha  occ. eigenvalues --  -24.79972 -19.25944 -19.25664 -19.21274 -19.18876
 Alpha  occ. eigenvalues --  -14.48567 -14.42519 -14.38877 -10.40169 -10.35262
 Alpha  occ. eigenvalues --  -10.34276 -10.33547 -10.33411 -10.33256 -10.32973
 Alpha  occ. eigenvalues --  -10.32016 -10.31626 -10.28906 -10.28494 -10.28264
 Alpha  occ. eigenvalues --  -10.28259 -10.27917 -10.27538 -10.27440 -10.27373
 Alpha  occ. eigenvalues --  -10.27134 -10.24407  -1.25230  -1.13289  -1.09700
 Alpha  occ. eigenvalues --   -1.04440  -1.04033  -1.02750  -0.97988  -0.92615
 Alpha  occ. eigenvalues --   -0.90218  -0.88058  -0.83068  -0.80422  -0.79729
 Alpha  occ. eigenvalues --   -0.78665  -0.73462  -0.72736  -0.71038  -0.69706
 Alpha  occ. eigenvalues --   -0.67012  -0.66290  -0.64394  -0.63804  -0.62632
 Alpha  occ. eigenvalues --   -0.60904  -0.59234  -0.57394  -0.56787  -0.56204
 Alpha  occ. eigenvalues --   -0.54281  -0.53317  -0.52288  -0.51514  -0.50486
 Alpha  occ. eigenvalues --   -0.50003  -0.49881  -0.48506  -0.48417  -0.48199
 Alpha  occ. eigenvalues --   -0.47820  -0.47256  -0.46815  -0.46514  -0.45871
 Alpha  occ. eigenvalues --   -0.44894  -0.44481  -0.43702  -0.43103  -0.42570
 Alpha  occ. eigenvalues --   -0.41610  -0.40527  -0.39984  -0.39781  -0.39646
 Alpha  occ. eigenvalues --   -0.39585  -0.39323  -0.38642  -0.38448  -0.36649
 Alpha  occ. eigenvalues --   -0.36132  -0.35764  -0.35572  -0.33964  -0.33407
 Alpha  occ. eigenvalues --   -0.32437  -0.30744  -0.29973  -0.28839  -0.28307
 Alpha  occ. eigenvalues --   -0.24610  -0.24126  -0.23607  -0.22067
 Alpha virt. eigenvalues --   -0.05652  -0.04591  -0.00583   0.02530   0.06329
 Alpha virt. eigenvalues --    0.08858   0.09107   0.09605   0.09829   0.10262
 Alpha virt. eigenvalues --    0.10482   0.11051   0.11849   0.12274   0.12892

 Mulliken charges:
               1
     1  C   -0.061368
     2  C   -0.467399
     3  C   -0.522844
     4  H    0.250615
     5  H    0.244507
     6  H    0.237630
     7  H    0.261559
     8  H    0.258990
     9  N   -0.257763
    10  C   -0.305066
    11  C   -0.388185
    12  N   -0.403857
    13  C   -0.333206
    14  C   -0.006471
    15  H    0.289798
    16  H    0.215262
    17  H    0.230533
    18  H    0.214551
    19  H    0.234651
    20  H    0.195057
    21  H    0.214307
    22  H    0.168920
    23  O   -0.285154
    24  O   -0.454296
    25  O   -0.351447
    26  N   -0.230746
    27  C    0.194138
    28  C    0.213470
    29  C    0.239328
    30  C   -0.291766
    31  C    0.095644
    32  C    0.126638
    33  C   -0.646350
    34  C    0.195052
    35  C    0.272347
    36  C    0.197694
    37  H    0.294599
    38  H    0.407049
    39  F   -0.256785
    40  C   -0.718650
    41  H    0.219503
    42  H    0.207486
    43  H    0.204078
    44  O   -0.380756
    45  C   -0.511757
    46  H    0.236800
    47  H    0.232067
    48  H    0.221676
    49  H    0.299921
 Sum of Mulliken charges =   0.00000

 Dipole moment (field-independent basis, Debye):
    X=             -6.4632    Y=              5.8856    Z=              2.8189  Tot=              9.1848
 Quadrupole moment (field-independent basis, Debye-Ang):
   XX=           -162.2863   YY=           -161.5168   ZZ=           -151.6903
   XY=              3.1419   XZ=             -6.5820   YZ=             -4.1946

 Normal termination of Gaussian 09 at Wed Aug 12 00:27:01 2020.
