 Gaussian 09, Revision D.01,
 Gaussian 09:  ES64L-G09RevD.01 24-Apr-2013

 -----------------------------------
 # opt b3lyp/3-21g geom=connectivity
 -----------------------------------

 -------------------
 Title Card Required
 -------------------
 Symbolic Z-matrix:
 Charge =  0 Multiplicity = 1

 SCF Done:  E(RB3LYP) =  -1122.74488789     A.U. after   17 cycles
 SCF Done:  E(RB3LYP) =  -1122.74938755     A.U. after   14 cycles
 SCF Done:  E(RB3LYP) =  -1122.75026776     A.U. after   13 cycles
 SCF Done:  E(RB3LYP) =  -1122.75021676     A.U. after   16 cycles
 SCF Done:  E(RB3LYP) =  -1122.75085313     A.U. after   12 cycles
 SCF Done:  E(RB3LYP) =  -1122.75101410     A.U. after   13 cycles
 SCF Done:  E(RB3LYP) =  -1122.75113562     A.U. after   13 cycles
 SCF Done:  E(RB3LYP) =  -1122.75160079     A.U. after   13 cycles
 SCF Done:  E(RB3LYP) =  -1122.75151666     A.U. after   13 cycles
 SCF Done:  E(RB3LYP) =  -1122.75165052     A.U. after   12 cycles
 SCF Done:  E(RB3LYP) =  -1122.75165779     A.U. after   10 cycles
 SCF Done:  E(RB3LYP) =  -1122.75165974     A.U. after    9 cycles
 SCF Done:  E(RB3LYP) =  -1122.75166005     A.U. after    8 cycles
 Optimization completed.
    -- Stationary point found.

                         Standard orientation:
 ---------------------------------------------------------------------
 Center     Atomic      Atomic             Coordinates (Angstroms)
 Number     Number       Type             X           Y           Z
 ---------------------------------------------------------------------
      1          9           0        2.502815   -2.888963    0.389187
      2          8           0        1.683705    1.800621   -0.195052
      3          8           0       -2.467328   -2.606351    0.161424
      4          8           0       -4.960987   -1.535616   -0.052308
      5          8           0       -5.143640    0.729461   -0.265238
      6          7           0        3.949196    0.745092    1.137987
      7          7           0       -1.107040    1.289265   -0.157282
      8          6           0        3.585135   -0.161192    0.068742
      9          6           0        4.217504   -0.050108   -1.338552
     10          6           0        4.615260   -1.177044   -0.386903
     11          6           0        2.130854   -0.536688    0.081309
     12          6           0        1.199181    0.492111   -0.055229
     13          6           0       -0.182891    0.238691   -0.047873
     14          6           0        1.631345   -1.837108    0.235918
     15          6           0       -0.602516    2.692697   -0.130313
     16          6           0       -0.645378   -1.080031    0.071161
     17          6           0        0.737562    2.696745   -0.879855
     18          6           0        0.278875   -2.112936    0.211809
     19          6           0       -2.432717    1.012629   -0.175134
     20          6           0       -2.100416   -1.421558    0.057144
     21          6           0       -0.436805    3.186399    1.316894
     22          6           0       -2.962209   -0.248134   -0.087778
     23          6           0       -4.430815   -0.275544   -0.145528
     24          1           0        4.927200    0.756664   -1.483670
     25          1           0        3.604766   -0.301581   -2.196138
     26          1           0        4.275332   -2.179110   -0.591925
     27          1           0        5.591438   -1.108567    0.081496
     28          1           0        3.603189    1.691170    0.973326
     29          1           0        4.938727    0.715671    1.380921
     30          1           0       -1.325352    3.307407   -0.675439
     31          1           0        0.597514    2.367335   -1.915073
     32          1           0        1.198472    3.684007   -0.852060
     33          1           0       -0.092098   -3.123213    0.313388
     34          1           0       -3.115943    1.849779   -0.266741
     35          1           0        0.349968    2.611095    1.810234
     36          1           0       -0.154156    4.244722    1.317298
     37          1           0       -1.372292    3.070687    1.870723
     38          1           0       -5.953019   -1.444411   -0.099434
 ---------------------------------------------------------------------

 The electronic state is 1-A.
 Alpha  occ. eigenvalues --  -24.57407 -19.10267 -19.07054 -19.01729 -19.00301
 Alpha  occ. eigenvalues --  -14.34769 -14.21993 -10.25375 -10.22062 -10.21906
 Alpha  occ. eigenvalues --  -10.21517 -10.21406 -10.20449 -10.20340 -10.20009
 Alpha  occ. eigenvalues --  -10.17470 -10.15791 -10.15291 -10.14434 -10.14401
 Alpha  occ. eigenvalues --  -10.13644 -10.12475 -10.12148  -1.20892  -1.09335
 Alpha  occ. eigenvalues --   -1.09138  -1.02345  -1.01475  -1.00444  -0.91348
 Alpha  occ. eigenvalues --   -0.88389  -0.84366  -0.81434  -0.80661  -0.78871
 Alpha  occ. eigenvalues --   -0.76075  -0.72902  -0.69056  -0.67354  -0.66587
 Alpha  occ. eigenvalues --   -0.61881  -0.61002  -0.59982  -0.58582  -0.56482
 Alpha  occ. eigenvalues --   -0.54995  -0.54466  -0.52272  -0.51089  -0.50348
 Alpha  occ. eigenvalues --   -0.49319  -0.48666  -0.48254  -0.47683  -0.47553
 Alpha  occ. eigenvalues --   -0.46544  -0.45216  -0.45041  -0.44508  -0.43544
 Alpha  occ. eigenvalues --   -0.42736  -0.42444  -0.41377  -0.40927  -0.40375
 Alpha  occ. eigenvalues --   -0.39978  -0.38054  -0.37947  -0.37259  -0.36669
 Alpha  occ. eigenvalues --   -0.36261  -0.35477  -0.35046  -0.32383  -0.31963
 Alpha  occ. eigenvalues --   -0.29988  -0.29209  -0.26631  -0.26249  -0.24462
 Alpha  occ. eigenvalues --   -0.22854  -0.21786  -0.20338
 Alpha virt. eigenvalues --   -0.04729  -0.03950   0.01183   0.03684   0.05764
 Alpha virt. eigenvalues --    0.08655   0.09767   0.10786   0.11526   0.11903
 Alpha virt. eigenvalues --    0.12227   0.12639   0.13187   0.14081   0.14889

 Mulliken charges:
               1
     1  F   -0.281516
     2  O   -0.544119
     3  O   -0.489503
     4  O   -0.540258
     5  O   -0.518847
     6  N   -0.686414
     7  N   -0.826634
     8  C    0.053626
     9  C   -0.357342
    10  C   -0.364266
    11  C   -0.005588
    12  C    0.335555
    13  C    0.370001
    14  C    0.269389
    15  C   -0.106585
    16  C   -0.063519
    17  C   -0.137090
    18  C   -0.199382
    19  C    0.214898
    20  C    0.409657
    21  C   -0.530285
    22  C   -0.212720
    23  C    0.665902
    24  H    0.194537
    25  H    0.196322
    26  H    0.220517
    27  H    0.197499
    28  H    0.278933
    29  H    0.268387
    30  H    0.231331
    31  H    0.228448
    32  H    0.228905
    33  H    0.238335
    34  H    0.256307
    35  H    0.231652
    36  H    0.197535
    37  H    0.215410
    38  H    0.360921
 Sum of Mulliken charges =   0.00000

 Dipole moment (field-independent basis, Debye):
    X=              2.7817    Y=              6.7930    Z=             -1.5025  Tot=              7.4927
 Quadrupole moment (field-independent basis, Debye-Ang):
   XX=           -130.2283   YY=           -125.7302   ZZ=           -132.6750
   XY=              1.8486   XZ=             -1.6809   YZ=             -0.1265

 Normal termination of Gaussian 09 at Mon Jul  6 12:39:10 2020.
