 Gaussian 09, Revision D.01,
 Gaussian 09:  ES64L-G09RevD.01 24-Apr-2013

 -----------------------------------------------------
 #opt M06/lanl2dz integral=ultrafine geom=connectivity
 -----------------------------------------------------

 -------------------
 Title Card Required
 -------------------
 Symbolic Z-matrix:
 Charge =  0 Multiplicity = 1

 SCF Done:  E(RM06) =  -902.773738247     A.U. after   17 cycles
 SCF Done:  E(RM06) =  -902.776090816     A.U. after   15 cycles
 SCF Done:  E(RM06) =  -902.776268366     A.U. after   13 cycles
 SCF Done:  E(RM06) =  -902.776277224     A.U. after   10 cycles
 SCF Done:  E(RM06) =  -902.776276013     A.U. after   11 cycles
 SCF Done:  E(RM06) =  -902.776277247     A.U. after   10 cycles
 SCF Done:  E(RM06) =  -902.776279758     A.U. after   10 cycles
 SCF Done:  E(RM06) =  -902.776279864     A.U. after    9 cycles
 Optimization completed.
    -- Stationary point found.

                         Standard orientation:
 ---------------------------------------------------------------------
 Center     Atomic      Atomic             Coordinates (Angstroms)
 Number     Number       Type             X           Y           Z
 ---------------------------------------------------------------------
      1          8           0        2.283550   -0.607343    0.000111
      2          8           0       -5.120179   -2.007302   -0.000456
      3          8           0       -3.380205    2.313875    0.000000
      4          8           0        5.746291    0.091776   -0.000035
      5          8           0        4.653416   -1.876350    0.000136
      6          7           0       -2.338602    0.179418    0.000060
      7          7           0       -4.567744    0.274635   -0.000081
      8          7           0       -1.067681    0.647352    0.000095
      9          7           0        4.686014   -0.611550    0.000079
     10          6           0       -2.777698   -1.218471   -0.000131
     11          6           0       -4.300912   -1.089786    0.000315
     12          6           0       -3.415614    1.091375   -0.000065
     13          6           0        1.262712    0.331015    0.000084
     14          6           0       -0.077476   -0.197949    0.000184
     15          6           0        1.795515    1.610899   -0.000064
     16          6           0        3.455466    0.111261    0.000041
     17          6           0        3.212236    1.467420   -0.000061
     18          1           0       -2.443430   -1.761936   -0.892005
     19          1           0       -2.443097   -1.762274    0.891409
     20          1           0       -5.499680    0.671047   -0.000343
     21          1           0       -0.168767   -1.288334    0.000279
     22          1           0        1.217875    2.521332   -0.000133
     23          1           0        3.964829    2.239337   -0.000134
 ---------------------------------------------------------------------

 The electronic state is 1-A.
 Alpha  occ. eigenvalues --  -19.34799 -19.28004 -19.27716 -19.26193 -19.25471
 Alpha  occ. eigenvalues --  -14.65776 -14.52403 -14.50679 -14.48998 -10.45266
 Alpha  occ. eigenvalues --  -10.43590 -10.39653 -10.37835 -10.35617 -10.35053
 Alpha  occ. eigenvalues --  -10.32133 -10.30803  -1.26233  -1.20507  -1.15577
 Alpha  occ. eigenvalues --   -1.12707  -1.09399  -1.08961  -1.02585  -0.92820
 Alpha  occ. eigenvalues --   -0.88563  -0.86811  -0.82161  -0.77723  -0.71250
 Alpha  occ. eigenvalues --   -0.69084  -0.68223  -0.63279  -0.61340  -0.60040
 Alpha  occ. eigenvalues --   -0.58164  -0.57688  -0.57518  -0.57334  -0.53693
 Alpha  occ. eigenvalues --   -0.52620  -0.52130  -0.51455  -0.49003  -0.48429
 Alpha  occ. eigenvalues --   -0.47575  -0.47486  -0.47325  -0.46885  -0.44037
 Alpha  occ. eigenvalues --   -0.42409  -0.35235  -0.35211  -0.34295  -0.34008
 Alpha  occ. eigenvalues --   -0.33628  -0.33294  -0.32998  -0.31574  -0.31475
 Alpha  occ. eigenvalues --   -0.27380
 Alpha virt. eigenvalues --   -0.12688  -0.07882  -0.04986   0.00902   0.02284
 Alpha virt. eigenvalues --    0.05275   0.06430   0.06883   0.08777   0.09961
 Alpha virt. eigenvalues --    0.10303   0.11847   0.13624   0.14579   0.14688

 Mulliken charges:
               1
     1  O   -0.286012
     2  O   -0.245899
     3  O   -0.243135
     4  O   -0.252180
     5  O   -0.231696
     6  N   -0.248394
     7  N   -0.508747
     8  N    0.069909
     9  N    0.111754
    10  C   -0.442880
    11  C    0.268312
    12  C    0.392046
    13  C    0.412205
    14  C   -0.308236
    15  C   -0.294414
    16  C    0.305152
    17  C   -0.268997
    18  H    0.287063
    19  H    0.286981
    20  H    0.396083
    21  H    0.241619
    22  H    0.280206
    23  H    0.279259
 Sum of Mulliken charges =   0.00000

 Dipole moment (field-independent basis, Debye):
    X=             -3.9511    Y=              1.1935    Z=              0.0003  Tot=              4.1274
 Quadrupole moment (field-independent basis, Debye-Ang):
   XX=           -130.7649   YY=           -107.6506   ZZ=            -93.1536
   XY=             10.8039   XZ=             -0.0028   YZ=             -0.0026

 Normal termination of Gaussian 09 at Tue Jul 21 03:47:57 2020.
