 Gaussian 09, Revision D.01,
 Gaussian 09:  ES64L-G09RevD.01 24-Apr-2013

 -----------------------------------------------------
 #opt M06/lanl2dz integral=ultrafine geom=connectivity
 -----------------------------------------------------

 -------------------
 Title Card Required
 -------------------
 Symbolic Z-matrix:
 Charge =  0 Multiplicity = 1

 SCF Done:  E(RM06) =  -990.624378411     A.U. after   17 cycles
 SCF Done:  E(RM06) =  -990.625899315     A.U. after   15 cycles
 SCF Done:  E(RM06) =  -990.626059301     A.U. after   14 cycles
 SCF Done:  E(RM06) =  -990.626032912     A.U. after   14 cycles
 SCF Done:  E(RM06) =  -990.626090311     A.U. after   13 cycles
 SCF Done:  E(RM06) =  -990.626090446     A.U. after    9 cycles
 SCF Done:  E(RM06) =  -990.626092359     A.U. after    9 cycles
 SCF Done:  E(RM06) =  -990.626093198     A.U. after    8 cycles
 SCF Done:  E(RM06) =  -990.626093257     A.U. after    8 cycles
 SCF Done:  E(RM06) =  -990.626093308     A.U. after    7 cycles
 SCF Done:  E(RM06) =  -990.626093372     A.U. after    7 cycles
 SCF Done:  E(RM06) =  -990.626093386     A.U. after    7 cycles
 SCF Done:  E(RM06) =  -990.626093386     A.U. after    7 cycles
 Optimization completed.
    -- Stationary point found.

                         Standard orientation:
 ---------------------------------------------------------------------
 Center     Atomic      Atomic             Coordinates (Angstroms)
 Number     Number       Type             X           Y           Z
 ---------------------------------------------------------------------
      1          8           0       -2.781774   -2.486737    0.350521
      2          8           0       -5.294671   -1.336349    0.158414
      3          8           0       -5.393794    0.893239   -0.272560
      4          7           0       -1.324320    1.332261   -0.370735
      5          7           0        6.129152    0.111778   -0.062390
      6          6           0       -0.413693    0.278458   -0.151728
      7          6           0       -0.923886   -1.018299    0.086581
      8          6           0       -0.861193    2.721158   -0.575664
      9          6           0        0.977781    0.491465   -0.179048
     10          6           0        1.866783   -0.569840    0.023541
     11          6           0       -2.659468    1.087950   -0.315552
     12          6           0       -2.385026   -1.318130    0.137935
     13          6           0       -3.234140   -0.143717   -0.078953
     14          6           0       -0.019273   -2.075735    0.285964
     15          6           0        1.353204   -1.865760    0.255591
     16          6           0        3.327993   -0.333871   -0.003795
     17          6           0       -0.523370    3.410839    0.747196
     18          6           0       -4.707116   -0.129904   -0.077727
     19          6           0        4.213149   -1.300234   -0.516989
     20          6           0        3.891038    0.861139    0.482759
     21          6           0        5.588244   -1.037052   -0.526340
     22          6           0        5.278812    1.038341    0.433202
     23          1           0       -0.005086    2.713391   -1.257979
     24          1           0       -1.664496    3.259351   -1.088483
     25          1           0        1.382542    1.477473   -0.387782
     26          1           0       -3.320809    1.937721   -0.474479
     27          1           0       -0.446294   -3.057157    0.472282
     28          1           0        2.036449   -2.689402    0.442244
     29          1           0       -1.407242    3.448803    1.392992
     30          1           0        0.266247    2.878426    1.288712
     31          1           0       -0.185551    4.436156    0.567130
     32          1           0        3.838418   -2.232952   -0.928014
     33          1           0        3.264524    1.631588    0.924376
     34          1           0        6.288170   -1.766833   -0.922899
     35          1           0        5.734421    1.950231    0.808637
     36          1           0       -6.272237   -1.237147    0.142295
 ---------------------------------------------------------------------

 The electronic state is 1-A.
 Alpha  occ. eigenvalues --  -19.26463 -19.21781 -19.19544 -14.49281 -14.41738
 Alpha  occ. eigenvalues --  -10.40711 -10.34931 -10.34220 -10.34188 -10.33113
 Alpha  occ. eigenvalues --  -10.30627 -10.30598 -10.30521 -10.30340 -10.29005
 Alpha  occ. eigenvalues --  -10.28622 -10.28442 -10.28281 -10.28157 -10.28035
 Alpha  occ. eigenvalues --  -10.27913 -10.27244  -1.13841  -1.05137  -1.04599
 Alpha  occ. eigenvalues --   -1.03657  -0.97814  -0.90712  -0.85936  -0.84995
 Alpha  occ. eigenvalues --   -0.81012  -0.79440  -0.78970  -0.78571  -0.71009
 Alpha  occ. eigenvalues --   -0.69467  -0.69075  -0.66129  -0.65233  -0.63528
 Alpha  occ. eigenvalues --   -0.62298  -0.58553  -0.56489  -0.55340  -0.53571
 Alpha  occ. eigenvalues --   -0.51696  -0.50858  -0.50229  -0.50052  -0.49150
 Alpha  occ. eigenvalues --   -0.48543  -0.48018  -0.46989  -0.46424  -0.46243
 Alpha  occ. eigenvalues --   -0.45713  -0.45152  -0.43467  -0.42785  -0.42276
 Alpha  occ. eigenvalues --   -0.41738  -0.40417  -0.40121  -0.39662  -0.39083
 Alpha  occ. eigenvalues --   -0.38817  -0.38459  -0.37499  -0.33362  -0.32665
 Alpha  occ. eigenvalues --   -0.29916  -0.29445  -0.29389  -0.27654  -0.26812
 Alpha  occ. eigenvalues --   -0.25212  -0.24885
 Alpha virt. eigenvalues --   -0.07423  -0.06314  -0.02918  -0.02445  -0.00910
 Alpha virt. eigenvalues --    0.02442   0.08189   0.08872   0.09289   0.10022
 Alpha virt. eigenvalues --    0.10955   0.12215   0.12739   0.12915   0.13522

 Mulliken charges:
               1
     1  O   -0.282461
     2  O   -0.452101
     3  O   -0.354626
     4  N   -0.218010
     5  N   -0.055627
     6  C    0.333872
     7  C    0.168259
     8  C   -0.357658
     9  C   -0.509521
    10  C    0.458897
    11  C   -0.285269
    12  C    0.154312
    13  C    0.089529
    14  C   -0.390982
    15  C   -0.440315
    16  C    0.366973
    17  C   -0.625811
    18  C    0.204374
    19  C   -0.320212
    20  C   -0.316126
    21  C   -0.324469
    22  C   -0.325167
    23  H    0.229722
    24  H    0.230816
    25  H    0.239982
    26  H    0.277836
    27  H    0.275137
    28  H    0.235685
    29  H    0.229886
    30  H    0.225302
    31  H    0.226321
    32  H    0.227552
    33  H    0.215876
    34  H    0.231097
    35  H    0.228544
    36  H    0.408383
 Sum of Mulliken charges =   0.00000

 Dipole moment (field-independent basis, Debye):
    X=              2.1341    Y=              4.5462    Z=             -0.5871  Tot=              5.0564
 Quadrupole moment (field-independent basis, Debye-Ang):
   XX=           -160.5159   YY=           -117.3438   ZZ=           -127.5497
   XY=             -8.9659   XZ=              0.0379   YZ=              3.0130

 Normal termination of Gaussian 09 at Tue Jul 21 14:19:06 2020.
