 Gaussian 09, Revision D.01,
 Gaussian 09:  ES64L-G09RevD.01 24-Apr-2013

 -----------------------------------------------------
 #opt M06/lanl2dz integral=ultrafine geom=connectivity
 -----------------------------------------------------

 -------------------
 Title Card Required
 -------------------
 Symbolic Z-matrix:
 Charge =  0 Multiplicity = 1

 SCF Done:  E(RM06) =  -1378.56723032     A.U. after   17 cycles
 SCF Done:  E(RM06) =  -1378.57078020     A.U. after   15 cycles
 SCF Done:  E(RM06) =  -1378.57132091     A.U. after   14 cycles
 SCF Done:  E(RM06) =  -1378.57249772     A.U. after   14 cycles
 SCF Done:  E(RM06) =  -1378.57265142     A.U. after   13 cycles
 SCF Done:  E(RM06) =  -1378.57260618     A.U. after   13 cycles
 SCF Done:  E(RM06) =  -1378.57280014     A.U. after   13 cycles
 SCF Done:  E(RM06) =  -1378.57285625     A.U. after   13 cycles
 SCF Done:  E(RM06) =  -1378.57289359     A.U. after   13 cycles
 SCF Done:  E(RM06) =  -1378.57291582     A.U. after   11 cycles
 SCF Done:  E(RM06) =  -1378.57295335     A.U. after   12 cycles
 SCF Done:  E(RM06) =  -1378.57296476     A.U. after   12 cycles
 SCF Done:  E(RM06) =  -1378.57297139     A.U. after   11 cycles
 SCF Done:  E(RM06) =  -1378.57297466     A.U. after   11 cycles
 SCF Done:  E(RM06) =  -1378.57297894     A.U. after   12 cycles
 SCF Done:  E(RM06) =  -1378.57298159     A.U. after   12 cycles
 SCF Done:  E(RM06) =  -1378.57298377     A.U. after   11 cycles
 SCF Done:  E(RM06) =  -1378.57298537     A.U. after   11 cycles
 SCF Done:  E(RM06) =  -1378.57298555     A.U. after    8 cycles
 SCF Done:  E(RM06) =  -1378.57298564     A.U. after    8 cycles
 Optimization completed.
    -- Stationary point found.

                         Standard orientation:
 ---------------------------------------------------------------------
 Center     Atomic      Atomic             Coordinates (Angstroms)
 Number     Number       Type             X           Y           Z
 ---------------------------------------------------------------------
      1          9           0       -1.366934   -2.892784   -0.133942
      2          8           0       -0.288288    1.704728    0.884796
      3          8           0        3.589972   -2.739724   -0.516678
      4          8           0        6.174054   -1.821243   -0.037766
      5          8           0        6.465088    0.432135   -0.112238
      6          7           0       -2.246628   -0.290627    0.524767
      7          7           0       -5.428716    1.355434   -0.290809
      8          7           0        2.428563    1.193764    0.096411
      9          6           0       -4.555296   -0.719511    0.776263
     10          6           0       -4.358658    0.788739    0.511900
     11          6           0       -3.180129   -1.149561    1.288705
     12          6           0       -2.927204    0.867231   -0.079704
     13          6           0       -4.936480   -1.470384   -0.508821
     14          6           0        2.083274    2.609859   -0.003958
     15          6           0       -6.129871   -0.802323   -1.201492
     16          6           0        2.811547    3.458916   -1.032293
     17          6           0        1.353647    3.078805   -1.239053
     18          6           0       -5.791652    0.655592   -1.524087
     19          6           0       -0.904966   -0.572051    0.327261
     20          6           0        1.445808    0.176180    0.127779
     21          6           0        0.084840    0.439372    0.423194
     22          6           0        1.859878   -1.158227   -0.093640
     23          6           0       -0.432164   -1.874149    0.026949
     24          6           0        3.743961    0.844872    0.041396
     25          6           0        0.896732   -2.180125   -0.138387
     26          6           0        4.223843   -0.440755   -0.085255
     27          6           0        3.286268   -1.552006   -0.256948
     28          6           0        5.692063   -0.546378   -0.090041
     29          6           0       -0.660734    1.732285    2.290078
     30          1           0       -5.337829   -0.864364    1.530707
     31          1           0       -4.351150    1.303563    1.484613
     32          1           0       -3.075909   -0.955416    2.370392
     33          1           0       -2.987296   -2.211501    1.112265
     34          1           0       -2.947704    0.773021   -1.177608
     35          1           0       -2.429516    1.813046    0.164171
     36          1           0       -5.160261   -2.516467   -0.264620
     37          1           0       -4.072076   -1.488793   -1.192147
     38          1           0        1.808807    3.071404    0.937229
     39          1           0       -6.391532   -1.337794   -2.121906
     40          1           0       -7.004572   -0.820634   -0.536628
     41          1           0       -5.436477    2.368217   -0.344549
     42          1           0        3.545839    2.980891   -1.673340
     43          1           0        3.055882    4.477029   -0.752270
     44          1           0        0.577858    3.822548   -1.104964
     45          1           0        1.140277    2.331711   -1.997837
     46          1           0       -4.985000    0.669164   -2.286206
     47          1           0       -6.659901    1.160097   -1.962445
     48          1           0        4.459614    1.661388    0.086629
     49          1           0        1.227298   -3.194015   -0.344584
     50          1           0        0.162699    1.351837    2.909168
     51          1           0       -1.562955    1.130446    2.468864
     52          1           0       -0.857407    2.778398    2.531063
     53          1           0        7.156342   -1.804165   -0.047101
 ---------------------------------------------------------------------

 The electronic state is 1-A.
 Alpha  occ. eigenvalues --  -24.80105 -19.25861 -19.25830 -19.21150 -19.18721
 Alpha  occ. eigenvalues --  -14.48435 -14.42235 -14.38597 -10.40045 -10.35186
 Alpha  occ. eigenvalues --  -10.34135 -10.33621 -10.33321 -10.33099 -10.32671
 Alpha  occ. eigenvalues --  -10.31795 -10.31747 -10.29111 -10.28527 -10.28051
 Alpha  occ. eigenvalues --  -10.27835 -10.27577 -10.27380 -10.27295 -10.27159
 Alpha  occ. eigenvalues --  -10.26964 -10.25827 -10.24361 -10.24208  -1.25281
 Alpha  occ. eigenvalues --   -1.13171  -1.09818  -1.04295  -1.03906  -1.02623
 Alpha  occ. eigenvalues --   -0.97772  -0.92841  -0.90169  -0.88237  -0.82951
 Alpha  occ. eigenvalues --   -0.82471  -0.79746  -0.78707  -0.76877  -0.74294
 Alpha  occ. eigenvalues --   -0.72593  -0.70599  -0.68699  -0.66855  -0.65810
 Alpha  occ. eigenvalues --   -0.63834  -0.63018  -0.62732  -0.61520  -0.60938
 Alpha  occ. eigenvalues --   -0.57651  -0.56893  -0.56299  -0.55951  -0.54103
 Alpha  occ. eigenvalues --   -0.53237  -0.52628  -0.52054  -0.51450  -0.50078
 Alpha  occ. eigenvalues --   -0.49623  -0.48950  -0.48063  -0.47800  -0.47609
 Alpha  occ. eigenvalues --   -0.46830  -0.46667  -0.46462  -0.45477  -0.44783
 Alpha  occ. eigenvalues --   -0.44367  -0.43724  -0.43400  -0.43206  -0.42463
 Alpha  occ. eigenvalues --   -0.41694  -0.41268  -0.40493  -0.40110  -0.39702
 Alpha  occ. eigenvalues --   -0.39519  -0.39191  -0.38799  -0.38330  -0.37471
 Alpha  occ. eigenvalues --   -0.36346  -0.36018  -0.34088  -0.33891  -0.33216
 Alpha  occ. eigenvalues --   -0.33036  -0.32295  -0.32238  -0.31004  -0.29822
 Alpha  occ. eigenvalues --   -0.28693  -0.27736  -0.24474  -0.23894  -0.22493
 Alpha  occ. eigenvalues --   -0.22305
 Alpha virt. eigenvalues --   -0.05459  -0.04542  -0.00385   0.02565   0.06461
 Alpha virt. eigenvalues --    0.08520   0.08993   0.09121   0.10064   0.10436
 Alpha virt. eigenvalues --    0.10546   0.11001   0.11725   0.12466   0.12877

 Mulliken charges:
               1
     1  F   -0.260413
     2  O   -0.381772
     3  O   -0.286471
     4  O   -0.454252
     5  O   -0.352438
     6  N   -0.269273
     7  N   -0.397547
     8  N   -0.229858
     9  C   -0.096626
    10  C   -0.150713
    11  C   -0.454676
    12  C   -0.421119
    13  C   -0.439887
    14  C   -0.060003
    15  C   -0.360743
    16  C   -0.522686
    17  C   -0.464906
    18  C   -0.390356
    19  C    0.244712
    20  C    0.199576
    21  C    0.186427
    22  C    0.229206
    23  C    0.262194
    24  C   -0.287682
    25  C   -0.644010
    26  C    0.093660
    27  C    0.129303
    28  C    0.198115
    29  C   -0.501993
    30  H    0.246123
    31  H    0.232961
    32  H    0.219852
    33  H    0.257142
    34  H    0.232205
    35  H    0.246892
    36  H    0.222010
    37  H    0.210771
    38  H    0.260986
    39  H    0.193721
    40  H    0.200730
    41  H    0.286906
    42  H    0.243795
    43  H    0.249931
    44  H    0.260085
    45  H    0.236269
    46  H    0.173606
    47  H    0.210550
    48  H    0.294830
    49  H    0.300536
    50  H    0.227348
    51  H    0.235479
    52  H    0.234859
    53  H    0.406647
 Sum of Mulliken charges =   0.00000

 Dipole moment (field-independent basis, Debye):
    X=             -5.8001    Y=              6.4627    Z=              1.9630  Tot=              8.9028
 Quadrupole moment (field-independent basis, Debye-Ang):
   XX=           -183.2688   YY=           -170.9134   ZZ=           -160.3694
   XY=              6.7293   XZ=              3.4866   YZ=             -1.2456

 Normal termination of Gaussian 09 at Tue Jul 21 16:51:22 2020.
