 Gaussian 09, Revision D.01,
 Gaussian 09:  ES64L-G09RevD.01 24-Apr-2013

 -----------------------------------
 # opt b3lyp/3-21g geom=connectivity
 -----------------------------------

 -------------------
 Title Card Required
 -------------------
 Symbolic Z-matrix:
 Charge =  0 Multiplicity = 1

 SCF Done:  E(RB3LYP) =  -898.370558340     A.U. after   17 cycles
 SCF Done:  E(RB3LYP) =  -898.405387292     A.U. after   15 cycles
 SCF Done:  E(RB3LYP) =  -898.417425050     A.U. after   17 cycles
 SCF Done:  E(RB3LYP) =  -898.420057386     A.U. after   17 cycles
 SCF Done:  E(RB3LYP) =  -898.421064683     A.U. after   17 cycles
 SCF Done:  E(RB3LYP) =  -898.422449745     A.U. after   15 cycles
 SCF Done:  E(RB3LYP) =  -898.422517601     A.U. after   12 cycles
 SCF Done:  E(RB3LYP) =  -898.422505343     A.U. after   12 cycles
 SCF Done:  E(RB3LYP) =  -898.422543405     A.U. after   11 cycles
 SCF Done:  E(RB3LYP) =  -898.422543819     A.U. after    9 cycles
 Optimization completed.
    -- Stationary point found.

                         Standard orientation:
 ---------------------------------------------------------------------
 Center     Atomic      Atomic             Coordinates (Angstroms)
 Number     Number       Type             X           Y           Z
 ---------------------------------------------------------------------
      1          8           0       -2.289863   -0.628968   -0.000035
      2          8           0        5.130953   -2.004661   -0.000193
      3          8           0        3.381776    2.312647    0.000598
      4          8           0       -5.750589    0.124268    0.000145
      5          8           0       -4.630041   -1.892401    0.000456
      6          7           0        2.343900    0.184940   -0.000402
      7          7           0        4.569279    0.270315    0.000512
      8          7           0        1.062485    0.678945   -0.000036
      9          7           0       -4.687682   -0.610384    0.000205
     10          6           0        2.774831   -1.220888   -0.000407
     11          6           0        4.313669   -1.094335    0.000212
     12          6           0        3.421514    1.095876   -0.000162
     13          6           0       -1.268211    0.325004   -0.000169
     14          6           0        0.079097   -0.165998   -0.000047
     15          6           0       -1.809374    1.593709   -0.000469
     16          6           0       -3.470558    0.095656   -0.000037
     17          6           0       -3.223807    1.442262   -0.000284
     18          1           0        2.439341   -1.755393    0.895100
     19          1           0        2.439755   -1.755364   -0.896047
     20          1           0        5.503688    0.662650    0.000787
     21          1           0        0.181408   -1.249168   -0.000247
     22          1           0       -1.243471    2.508125   -0.000807
     23          1           0       -3.977451    2.207645   -0.000315
 ---------------------------------------------------------------------

 The electronic state is 1-A.
 Alpha  occ. eigenvalues --  -19.16130 -19.06969 -19.06713 -19.06037 -19.05275
 Alpha  occ. eigenvalues --  -14.48694 -14.36798 -14.34043 -14.33486 -10.30343
 Alpha  occ. eigenvalues --  -10.28564 -10.25881 -10.23782 -10.22048 -10.21136
 Alpha  occ. eigenvalues --  -10.18020 -10.17053  -1.20504  -1.15934  -1.11820
 Alpha  occ. eigenvalues --   -1.09029  -1.05690  -1.03620  -0.99439  -0.90179
 Alpha  occ. eigenvalues --   -0.86049  -0.84101  -0.79416  -0.75242  -0.68688
 Alpha  occ. eigenvalues --   -0.66526  -0.66058  -0.60511  -0.59297  -0.57367
 Alpha  occ. eigenvalues --   -0.55156  -0.54740  -0.54587  -0.53545  -0.51131
 Alpha  occ. eigenvalues --   -0.49480  -0.49030  -0.47780  -0.45729  -0.45475
 Alpha  occ. eigenvalues --   -0.45473  -0.44812  -0.44144  -0.44016  -0.41368
 Alpha  occ. eigenvalues --   -0.39342  -0.32492  -0.32406  -0.31036  -0.30910
 Alpha  occ. eigenvalues --   -0.30652  -0.29266  -0.28787  -0.28323  -0.28191
 Alpha  occ. eigenvalues --   -0.24487
 Alpha virt. eigenvalues --   -0.11009  -0.06089  -0.03184   0.03054   0.04641
 Alpha virt. eigenvalues --    0.06961   0.07596   0.07817   0.09775   0.11130
 Alpha virt. eigenvalues --    0.12075   0.13249   0.15442   0.15674   0.17011

 Mulliken charges:
               1
     1  O   -0.511603
     2  O   -0.452560
     3  O   -0.455742
     4  O   -0.301013
     5  O   -0.282759
     6  N   -0.527807
     7  N   -0.770350
     8  N   -0.268526
     9  N   -0.001119
    10  C   -0.272581
    11  C    0.658140
    12  C    0.942886
    13  C    0.313227
    14  C    0.049924
    15  C   -0.201311
    16  C    0.657722
    17  C   -0.167268
    18  H    0.266579
    19  H    0.266589
    20  H    0.356478
    21  H    0.225089
    22  H    0.234098
    23  H    0.241908
 Sum of Mulliken charges =   0.00000

 Dipole moment (field-independent basis, Debye):
    X=              3.8069    Y=              0.7858    Z=             -0.0016  Tot=              3.8872
 Quadrupole moment (field-independent basis, Debye-Ang):
   XX=           -119.5141   YY=           -103.6336   ZZ=            -93.0951
   XY=             -8.6624   XZ=              0.0031   YZ=             -0.0030

 Normal termination of Gaussian 09 at Mon Jul  6 10:42:44 2020.
 Normal termination of Gaussian 09 at Mon Jul  6 10:41:50 2020.
